ITEM: TIMESTEP
0
ITEM: NUMBER OF ATOMS
344
ITEM: BOX BOUNDS pp pp pp
-50 50
-50 50
0.108122 55.8988
ITEM: ATOMS id type xu yu zu
 1 1 2.41717 0.924489 25.6248
 2 1 1.65543 1.98921 26.1654
 3 1 1.50581 2.10474 27.571
 4 1 0.283045 2.57241 28.1116
 5 1 2.56035 0.376806 21.4081
 6 1 2.04834 1.58168 21.9487
 7 1 1.92742 1.72697 23.3542
 8 1 0.835592 2.44932 23.8948
 9 1 0.654574 2.50378 25.3004
 10 1 -0.654574 2.50378 25.841
 11 1 -0.835592 2.44932 27.2466
 12 1 -1.92742 1.72697 27.7872
 13 1 2.2568 1.26658 19.1375
 14 1 1.34816 2.20904 19.6781
 15 1 1.18331 2.30156 21.0837
 16 1 -0.0945165 2.5862 21.6243
 17 1 -0.283045 2.57241 23.0299
 18 1 -1.50581 2.10474 23.5705
 19 1 -1.65543 1.98921 24.9761
 20 1 -2.41717 0.924489 25.5167
 21 1 -2.4782 0.74558 26.9223
 22 1 -2.52602 -0.562694 27.4629
 23 1 2.4782 0.74558 14.9208
 24 1 1.79622 1.86306 15.4614
 25 1 1.65543 1.98921 16.867
 26 1 0.470064 2.54488 17.4076
 27 1 0.283045 2.57241 18.8131
 28 1 -1.01215 2.38179 19.3537
 29 1 -1.18331 2.30156 20.7593
 30 1 -2.15833 1.42794 21.2999
 31 1 -2.2568 1.26658 22.7055
 32 1 -2.58793 3.1693e-16 23.2461
 33 1 -2.58103 -0.188907 24.6517
 34 1 -2.15833 -1.42794 25.1923
 35 1 -2.04834 -1.58168 26.5979
 36 1 -1.01215 -2.38179 27.1385
 37 1 2.58103 0.188907 10.704
 38 1 2.15833 1.42794 11.2446
 39 1 2.04834 1.58168 12.6502
 40 1 1.01215 2.38179 13.1908
 41 1 0.835592 2.44932 14.5964
 42 1 -0.470064 2.54488 15.137
 43 1 -0.654574 2.50378 16.5426
 44 1 -1.79622 1.86306 17.0832
 45 1 -1.92742 1.72697 18.4888
 46 1 -2.52602 0.562694 19.0294
 47 1 -2.56035 0.376806 20.435
 48 1 -2.41717 -0.924489 20.9756
 49 1 -2.34324 -1.09846 22.3811
 50 1 -1.50581 -2.10474 22.9218
 51 1 -1.34816 -2.20904 24.3273
 52 1 -0.0945165 -2.5862 24.8679
 53 1 0.0945165 -2.5862 26.2735
 54 1 1.34816 -2.20904 26.8141
 55 1 2.34324 1.09846 8.43348
 56 1 1.50581 2.10474 8.97408
 57 1 1.34816 2.20904 10.3797
 58 1 0.0945165 2.5862 10.9203
 59 1 -0.0945165 2.5862 12.3258
 60 1 -1.34816 2.20904 12.8665
 61 1 -1.50581 2.10474 14.272
 62 1 -2.34324 1.09846 14.8126
 63 1 -2.41717 0.924489 16.2182
 64 1 -2.56035 -0.376806 16.7588
 65 1 -2.52602 -0.562694 18.1644
 66 1 -1.92742 -1.72697 18.705
 67 1 -1.79622 -1.86306 20.1106
 68 1 -0.654574 -2.50378 20.6512
 69 1 -0.470064 -2.54488 22.0568
 70 1 0.835592 -2.44932 22.5974
 71 1 1.01215 -2.38179 24.003
 72 1 2.04834 -1.58168 24.5436
 73 1 2.15833 -1.42794 25.9492
 74 1 2.58103 -0.188907 26.4898
 75 1 2.52602 0.562694 4.21674
 76 1 1.92742 1.72697 4.75735
 77 1 1.79622 1.86306 6.16292
 78 1 0.654574 2.50378 6.70353
 79 1 0.470064 2.54488 8.10911
 80 1 -0.835592 2.44932 8.64972
 81 1 -1.01215 2.38179 10.0553
 82 1 -2.04834 1.58168 10.5959
 83 1 -2.15833 1.42794 12.0015
 84 1 -2.58103 0.188907 12.5421
 85 1 -2.58793 3.1693e-16 13.9477
 86 1 -2.2568 -1.26658 14.4883
 87 1 -2.15833 -1.42794 15.8939
 88 1 -1.18331 -2.30156 16.4345
 89 1 -1.01215 -2.38179 17.84
 90 1 0.283045 -2.57241 18.3807
 91 1 0.470064 -2.54488 19.7862
 92 1 1.65543 -1.98921 20.3268
 93 1 1.79622 -1.86306 21.7324
 94 1 2.4782 -0.74558 22.273
 95 1 2.52602 -0.562694 23.6786
 96 1 2.4782 0.74558 24.2192
 97 1 2.58793 0 0
 98 1 2.2568 1.26658 0.540607
 99 1 2.15833 1.42794 1.94619
 100 1 1.18331 2.30156 2.48679
 101 1 1.01215 2.38179 3.89237
 102 1 -0.283045 2.57241 4.43298
 103 1 -0.470064 2.54488 5.83856
 104 1 -1.65543 1.98921 6.37917
 105 1 -1.79622 1.86306 7.78475
 106 1 -2.4782 0.74558 8.32535
 107 1 -2.52602 0.562694 9.73093
 108 1 -2.4782 -0.74558 10.2715
 109 1 -2.41717 -0.924489 11.6771
 110 1 -1.65543 -1.98921 12.2177
 111 1 -1.50581 -2.10474 13.6233
 112 1 -0.283045 -2.57241 14.1639
 113 1 -0.0945165 -2.5862 15.5695
 114 1 1.18331 -2.30156 16.1101
 115 1 1.34816 -2.20904 17.5157
 116 1 2.2568 -1.26658 18.0563
 117 1 2.34324 -1.09846 19.4619
 118 1 2.58103 0.188907 20.0025
 119 1 0.0945165 2.5862 1.62182
 120 1 -1.18331 2.30156 2.16243
 121 1 -1.34816 2.20904 3.56801
 122 1 -2.2568 1.26658 4.10862
 123 1 -2.34324 1.09846 5.5142
 124 1 -2.58103 -0.188907 6.0548
 125 1 -2.56035 -0.376806 7.46038
 126 1 -2.04834 -1.58168 8.00099
 127 1 -1.92742 -1.72697 9.40657
 128 1 -0.835592 -2.44932 9.94718
 129 1 -0.654574 -2.50378 11.3528
 130 1 0.654574 -2.50378 11.8934
 131 1 0.835592 -2.44932 13.2989
 132 1 1.92742 -1.72697 13.8396
 133 1 2.04834 -1.58168 15.2451
 134 1 2.56035 -0.376806 15.7857
 135 1 2.58103 -0.188907 17.1913
 136 1 2.34324 1.09846 17.7319
 137 1 -2.04834 1.58168 1.29746
 138 1 -2.56035 0.376806 1.83807
 139 1 -2.58103 0.188907 3.24364
 140 1 -2.34324 -1.09846 3.78425
 141 1 -2.2568 -1.26658 5.18983
 142 1 -1.34816 -2.20904 5.73044
 143 1 -1.18331 -2.30156 7.13602
 144 1 0.0945165 -2.5862 7.67663
 145 1 0.283045 -2.57241 9.0822
 146 1 1.50581 -2.10474 9.62281
 147 1 1.65543 -1.98921 11.0284
 148 1 2.41717 -0.924489 11.569
 149 1 2.4782 -0.74558 12.9746
 150 1 2.52602 0.562694 13.5152
 151 1 -2.4782 -0.74558 0.973093
 152 1 -1.79622 -1.86306 1.5137
 153 1 -1.65543 -1.98921 2.91928
 154 1 -0.470064 -2.54488 3.45989
 155 1 -0.283045 -2.57241 4.86547
 156 1 1.01215 -2.38179 5.40607
 157 1 1.18331 -2.30156 6.81165
 158 1 2.15833 -1.42794 7.35226
 159 1 2.2568 -1.26658 8.75784
 160 1 2.58793 -6.3386e-16 9.29845
 161 1 -0.835592 -2.44932 0.648729
 162 1 0.470064 -2.54488 1.18934
 163 1 0.654574 -2.50378 2.59492
 164 1 1.79622 -1.86306 3.13552
 165 1 1.92742 -1.72697 4.5411
 166 1 2.52602 -0.562694 5.08171
 167 1 2.56035 -0.376806 6.48729
 168 1 2.41717 0.924489 7.0279
 169 1 1.50581 -2.10474 0.324364
 170 1 2.34324 -1.09846 0.864972
 171 1 2.41717 -0.924489 2.27055
 172 1 2.56035 0.376806 2.81116
 173 1 2.41717 0.924489 53.5201
 174 1 1.65543 1.98921 54.0607
 175 1 1.50581 2.10474 55.4663
 176 1 0.283045 2.57241 56.0069
 177 1 2.56035 0.376806 49.3034
 178 1 2.04834 1.58168 49.844
 179 1 1.92742 1.72697 51.2496
 180 1 0.835592 2.44932 51.7902
 181 1 0.654574 2.50378 53.1958
 182 1 -0.654574 2.50378 53.7364
 183 1 -0.835592 2.44932 55.142
 184 1 -1.92742 1.72697 55.6826
 185 1 2.2568 1.26658 47.0328
 186 1 1.34816 2.20904 47.5735
 187 1 1.18331 2.30156 48.979
 188 1 -0.0945165 2.5862 49.5196
 189 1 -0.283045 2.57241 50.9252
 190 1 -1.50581 2.10474 51.4658
 191 1 -1.65543 1.98921 52.8714
 192 1 -2.41717 0.924489 53.412
 193 1 -2.4782 0.74558 54.8176
 194 1 -2.52602 -0.562694 55.3582
 195 1 2.4782 0.74558 42.8161
 196 1 1.79622 1.86306 43.3567
 197 1 1.65543 1.98921 44.7623
 198 1 0.470064 2.54488 45.3029
 199 1 0.283045 2.57241 46.7085
 200 1 -1.01215 2.38179 47.2491
 201 1 -1.18331 2.30156 48.6547
 202 1 -2.15833 1.42794 49.1953
 203 1 -2.2568 1.26658 50.6009
 204 1 -2.58793 3.1693e-16 51.1415
 205 1 -2.58103 -0.188907 52.547
 206 1 -2.15833 -1.42794 53.0877
 207 1 -2.04834 -1.58168 54.4932
 208 1 -1.01215 -2.38179 55.0338
 209 1 2.58103 0.188907 38.5994
 210 1 2.15833 1.42794 39.14
 211 1 2.04834 1.58168 40.5456
 212 1 1.01215 2.38179 41.0862
 213 1 0.835592 2.44932 42.4917
 214 1 -0.470064 2.54488 43.0324
 215 1 -0.654574 2.50378 44.4379
 216 1 -1.79622 1.86306 44.9785
 217 1 -1.92742 1.72697 46.3841
 218 1 -2.52602 0.562694 46.9247
 219 1 -2.56035 0.376806 48.3303
 220 1 -2.41717 -0.924489 48.8709
 221 1 -2.34324 -1.09846 50.2765
 222 1 -1.50581 -2.10474 50.8171
 223 1 -1.34816 -2.20904 52.2227
 224 1 -0.0945165 -2.5862 52.7633
 225 1 0.0945165 -2.5862 54.1689
 226 1 1.34816 -2.20904 54.7095
 227 1 2.34324 1.09846 36.3288
 228 1 1.50581 2.10474 36.8694
 229 1 1.34816 2.20904 38.275
 230 1 0.0945165 2.5862 38.8156
 231 1 -0.0945165 2.5862 40.2212
 232 1 -1.34816 2.20904 40.7618
 233 1 -1.50581 2.10474 42.1674
 234 1 -2.34324 1.09846 42.708
 235 1 -2.41717 0.924489 44.1136
 236 1 -2.56035 -0.376806 44.6542
 237 1 -2.52602 -0.562694 46.0598
 238 1 -1.92742 -1.72697 46.6004
 239 1 -1.79622 -1.86306 48.0059
 240 1 -0.654574 -2.50378 48.5465
 241 1 -0.470064 -2.54488 49.9521
 242 1 0.835592 -2.44932 50.4927
 243 1 1.01215 -2.38179 51.8983
 244 1 2.04834 -1.58168 52.4389
 245 1 2.15833 -1.42794 53.8445
 246 1 2.58103 -0.188907 54.3851
 247 1 2.52602 0.562694 32.1121
 248 1 1.92742 1.72697 32.6527
 249 1 1.79622 1.86306 34.0583
 250 1 0.654574 2.50378 34.5989
 251 1 0.470064 2.54488 36.0045
 252 1 -0.835592 2.44932 36.5451
 253 1 -1.01215 2.38179 37.9506
 254 1 -2.04834 1.58168 38.4912
 255 1 -2.15833 1.42794 39.8968
 256 1 -2.58103 0.188907 40.4374
 257 1 -2.58793 3.1693e-16 41.843
 258 1 -2.2568 -1.26658 42.3836
 259 1 -2.15833 -1.42794 43.7892
 260 1 -1.18331 -2.30156 44.3298
 261 1 -1.01215 -2.38179 45.7354
 262 1 0.283045 -2.57241 46.276
 263 1 0.470064 -2.54488 47.6816
 264 1 1.65543 -1.98921 48.2222
 265 1 1.79622 -1.86306 49.6278
 266 1 2.4782 -0.74558 50.1684
 267 1 2.52602 -0.562694 51.5739
 268 1 2.4782 0.74558 52.1146
 269 1 2.58793 0 27.8953
 270 1 2.2568 1.26658 28.436
 271 1 2.15833 1.42794 29.8415
 272 1 1.18331 2.30156 30.3821
 273 1 1.01215 2.38179 31.7877
 274 1 -0.283045 2.57241 32.3283
 275 1 -0.470064 2.54488 33.7339
 276 1 -1.65543 1.98921 34.2745
 277 1 -1.79622 1.86306 35.6801
 278 1 -2.4782 0.74558 36.2207
 279 1 -2.52602 0.562694 37.6263
 280 1 -2.4782 -0.74558 38.1669
 281 1 -2.41717 -0.924489 39.5725
 282 1 -1.65543 -1.98921 40.1131
 283 1 -1.50581 -2.10474 41.5187
 284 1 -0.283045 -2.57241 42.0593
 285 1 -0.0945165 -2.5862 43.4648
 286 1 1.18331 -2.30156 44.0054
 287 1 1.34816 -2.20904 45.411
 288 1 2.2568 -1.26658 45.9516
 289 1 2.34324 -1.09846 47.3572
 290 1 2.58103 0.188907 47.8978
 291 1 0.0945165 2.5862 29.5172
 292 1 -1.18331 2.30156 30.0578
 293 1 -1.34816 2.20904 31.4634
 294 1 -2.2568 1.26658 32.004
 295 1 -2.34324 1.09846 33.4095
 296 1 -2.58103 -0.188907 33.9501
 297 1 -2.56035 -0.376806 35.3557
 298 1 -2.04834 -1.58168 35.8963
 299 1 -1.92742 -1.72697 37.3019
 300 1 -0.835592 -2.44932 37.8425
 301 1 -0.654574 -2.50378 39.2481
 302 1 0.654574 -2.50378 39.7887
 303 1 0.835592 -2.44932 41.1943
 304 1 1.92742 -1.72697 41.7349
 305 1 2.04834 -1.58168 43.1405
 306 1 2.56035 -0.376806 43.6811
 307 1 2.58103 -0.188907 45.0867
 308 1 2.34324 1.09846 45.6273
 309 1 -2.04834 1.58168 29.1928
 310 1 -2.56035 0.376806 29.7334
 311 1 -2.58103 0.188907 31.139
 312 1 -2.34324 -1.09846 31.6796
 313 1 -2.2568 -1.26658 33.0852
 314 1 -1.34816 -2.20904 33.6258
 315 1 -1.18331 -2.30156 35.0314
 316 1 0.0945165 -2.5862 35.572
 317 1 0.283045 -2.57241 36.9775
 318 1 1.50581 -2.10474 37.5182
 319 1 1.65543 -1.98921 38.9237
 320 1 2.41717 -0.924489 39.4643
 321 1 2.4782 -0.74558 40.8699
 322 1 2.52602 0.562694 41.4105
 323 1 -2.4782 -0.74558 28.8684
 324 1 -1.79622 -1.86306 29.409
 325 1 -1.65543 -1.98921 30.8146
 326 1 -0.470064 -2.54488 31.3552
 327 1 -0.283045 -2.57241 32.7608
 328 1 1.01215 -2.38179 33.3014
 329 1 1.18331 -2.30156 34.707
 330 1 2.15833 -1.42794 35.2476
 331 1 2.2568 -1.26658 36.6532
 332 1 2.58793 -6.3386e-16 37.1938
 333 1 -0.835592 -2.44932 28.5441
 334 1 0.470064 -2.54488 29.0847
 335 1 0.654574 -2.50378 30.4903
 336 1 1.79622 -1.86306 31.0309
 337 1 1.92742 -1.72697 32.4364
 338 1 2.52602 -0.562694 32.9771
 339 1 2.56035 -0.376806 34.3826
 340 1 2.41717 0.924489 34.9232
 341 1 1.50581 -2.10474 28.2197
 342 1 2.34324 -1.09846 28.7603
 343 1 2.41717 -0.924489 30.1659
 344 1 2.56035 0.376806 30.7065
