LAMMPS data file via write_data, version 4 May 2022, timestep = 200000

344 atoms
1 atom types

-4.58793 4.58793 xlo xhi
-4.5862 4.5862 ylo yhi
0.108122 55.8988 zlo zhi

Masses

1 12.01

Atoms # atomic

102 1 -0.5757420800836751 2.5312757226162077 4.472626086298266 0 0 0
103 1 -0.7155801344212281 2.53873279939025 5.877036679206427 0 0 0
104 1 -1.8735503395195796 1.8377418778110228 6.39894563482184 0 0 0
120 1 -1.415947748705905 2.0600237394390026 2.1351193967294786 0 0 0
121 1 -1.5800406608299216 2.035004258726066 3.5971695779523487 0 0 0
122 1 -2.317175676542373 0.9533403916888508 4.118444648243215 0 0 0
123 1 -2.415443539250843 0.8403581056116584 5.522170957480943 0 0 0
124 1 -2.536040739951757 -0.5377826053211454 6.078806950262243 0 0 0
137 1 -2.175405216643379 1.2542136890455127 1.3064693580477724 0 0 0
138 1 -2.596164269661008 0.002697750180985765 1.8635316853779516 0 0 0
139 1 -2.6205385679189375 -0.1527892130010965 3.2862782167834674 0 0 0
140 1 -2.1876224230600863 -1.4142641070814839 3.793088447386512 0 0 0
141 1 -2.046094177623408 -1.5791332707337178 5.250889495199071 0 0 0
142 1 -0.9441215553929395 -2.31940957673197 5.7305476273095834 0 0 0
151 1 -2.425221889108432 -1.1303161381626157 0.9795741054563002 0 0 0
152 1 -1.505199939455471 -2.109315805560434 1.5073724363612 0 0 0
153 1 -1.3416168324661273 -2.1359991702530876 2.953226846180572 0 0 0
154 1 -0.017807305967775387 -2.50789273173866 3.476593443585606 0 0 0
161 1 -0.4346316398819841 -2.477070074782528 0.6937064844727316 0 0 0
119 1 -0.23958741212975787 2.6349352777613078 1.6080087548045432 0 0 0
176 1 -0.03180371769198687 2.6527839801208306 0.17216040260212925 0 0 1
59 1 -0.32814645589116354 2.490605285691316 12.407109012856386 0 0 0
60 1 -1.4730043011347416 1.8852410280113396 12.890339807118824 0 0 0
80 1 -1.1191846838809665 2.350513793672605 8.704746537250731 0 0 0
81 1 -1.227032544198871 2.2192322150312394 10.114964976258555 0 0 0
82 1 -2.181018843764031 1.3143493880383097 10.602469484641931 0 0 0
83 1 -2.2162478060265127 1.080924304200536 12.037883205605716 0 0 0
84 1 -2.4995095171942774 -0.20768055202153826 12.587171632532653 0 0 0
85 1 -2.4181845840771996 -0.42411964899455706 13.992618489180817 0 0 0
105 1 -2.0323181688670067 1.704670756647438 7.807286404400829 0 0 0
106 1 -2.531199986343263 0.46945697258922253 8.337473521755113 0 0 0
107 1 -2.6173279698587573 0.26327268541286597 9.783580199363705 0 0 0
108 1 -2.338358353840617 -1.0670528966615296 10.325408238445062 0 0 0
109 1 -2.1893720349085664 -1.2606644629351644 11.692436411114322 0 0 0
110 1 -1.280980856718342 -2.2560978110824457 12.223942953135444 0 0 0
111 1 -1.077468433550064 -2.4320346920217513 13.629014022402005 0 0 0
125 1 -2.4606414576707256 -0.692267869181754 7.527928144087972 0 0 0
126 1 -1.7675250898394355 -1.8043983907887806 8.011682018725029 0 0 0
127 1 -1.6402949551814887 -1.9899095279316041 9.417194550653027 0 0 0
128 1 -0.45456952465485345 -2.5641007608060313 9.905344627361757 0 0 0
129 1 -0.15954084338247718 -2.565367682930992 11.324987750140737 0 0 0
143 1 -0.7819764025436906 -2.388288352253601 7.163939666355609 0 0 0
58 1 -0.17993946060018293 2.6172377447943154 10.969093506660519 0 0 0
28 1 -1.2171363810733757 2.0186931846294454 19.32354037666808 0 0 0
29 1 -1.4924206225362995 1.9482216118345146 20.711642940370588 0 0 0
42 1 -0.6872147665168968 2.324522871804831 15.13217681361805 0 0 0
43 1 -0.834689747953698 2.220917215256711 16.528534938168193 0 0 0
44 1 -1.8930384295184544 1.4452607469345533 17.05675248898107 0 0 0
45 1 -2.0125391879817722 1.2068696083641395 18.481986605594905 0 0 0
46 1 -2.5309447472594404 0.02051137537442613 19.0243397370353 0 0 0
47 1 -2.6042561176157344 -0.1028180442955617 20.422207084343032 0 0 0
48 1 -2.2368230310840973 -1.3290688208268535 20.93978030264456 0 0 0
61 1 -1.6790222014026506 1.8037541601623235 14.28016202440081 0 0 0
62 1 -2.410108598933887 0.7005498180242004 14.824788021539515 0 0 0
63 1 -2.4650275517815152 0.4352762210649897 16.252239919278384 0 0 0
64 1 -2.3788334348054843 -0.9234096061579773 16.771804452646048 0 0 0
65 1 -2.4261022554320504 -1.1410259472951865 18.201422193340704 0 0 0
66 1 -1.6223366163131847 -2.224627575837982 18.767029522525934 0 0 0
67 1 -1.4889379934412614 -2.2579165777399854 20.161941331037347 0 0 0
68 1 -0.26181849490543707 -2.765843876504067 20.708837422989436 0 0 0
86 1 -1.9297723027878357 -1.6787719434335149 14.474093771043927 0 0 0
87 1 -1.826196860306042 -1.9047314598912937 15.905953691328504 0 0 0
88 1 -0.7530765531262357 -2.6822629544317036 16.469721101471258 0 0 0
89 1 -0.5651058667787696 -2.640867253083561 17.920293235418658 0 0 0
10 1 -1.0909181398122547 2.397044875993606 25.762763341868762 0 0 0
11 1 -1.2526547605478355 2.37052196321162 27.218054202519397 0 0 0
12 1 -2.2083627532028918 1.4276698978923168 27.739294308676808 0 0 0
16 1 -0.4755226253607281 2.444991840948886 21.59275560120799 0 0 0
17 1 -0.7174591094300979 2.4265420273827023 23.011810643697533 0 0 0
18 1 -1.8842128385593493 1.7964827657451619 23.56817693905827 0 0 0
19 1 -2.0320916098579924 1.7242393576908697 24.931373220059243 0 0 0
20 1 -2.542598441980025 0.5185656962116436 25.49671707472728 0 0 0
21 1 -2.593209576582997 0.3558573156989867 26.88589002510313 0 0 0
22 1 -2.4331735213085293 -0.9479936500715497 27.392168174226097 0 0 0
30 1 -2.4638867162604474 1.0583711371928708 21.2553446324062 0 0 0
31 1 -2.5130209713561813 0.8697921452546374 22.642152146755233 0 0 0
32 1 -2.653725380596477 -0.4222256828575717 23.232760658874252 0 0 0
33 1 -2.5611668292926493 -0.6133803207346611 24.63920956552757 0 0 0
34 1 -1.9939231895477363 -1.760029922350477 25.17246802324666 0 0 0
35 1 -1.801311356533975 -1.8939137566617965 26.581578532869393 0 0 0
36 1 -0.6827604888748324 -2.5610475807226765 27.182701537982172 0 0 0
49 1 -2.2021005472888944 -1.4966583930664876 22.34960625336342 0 0 0
50 1 -1.1973876145710423 -2.4087334591360605 22.922626840225938 0 0 0
51 1 -1.013168758794082 -2.446100096229834 24.349883800097576 0 0 0
69 1 -0.11205387403451789 -2.682215878486699 22.10040549043052 0 0 0
274 1 -0.7947929531360406 2.5768832845147034 32.334151143153164 0 0 0
275 1 -0.9915148193944727 2.51520408307395 33.70811443036308 0 0 0
276 1 -2.0662552506776946 1.6991663749067956 34.246510877709426 0 0 0
292 1 -1.71958072950457 2.17646142665608 30.031770787654306 0 0 0
293 1 -1.8053558922235937 2.0171208276219192 31.43953894154663 0 0 0
294 1 -2.5843483564550604 0.9508981197592044 31.99988437948185 0 0 0
295 1 -2.6249326864638944 0.7288861848686341 33.36235333644728 0 0 0
296 1 -2.7043821010636404 -0.6364119032347844 33.90495370455575 0 0 0
309 1 -2.432854270763926 1.331688417986772 29.121024997659113 0 0 0
310 1 -2.6860274542883373 0.04621659104349965 29.69442590178021 0 0 0
311 1 -2.628075405854479 -0.19589183323246503 31.1045025476148 0 0 0
312 1 -2.236429177330795 -1.414880266578672 31.658385633286546 0 0 0
313 1 -2.1508227705466454 -1.5988724240693224 33.022157825864376 0 0 0
314 1 -1.050667285470223 -2.341207171112747 33.565364680164755 0 0 0
323 1 -2.4706519126298407 -1.08270969634281 28.813550482019274 0 0 0
324 1 -1.6696652301082504 -2.165188596352724 29.33729685169748 0 0 0
325 1 -1.4254837459053054 -2.195097690866222 30.786248206507334 0 0 0
326 1 -0.22038072678994886 -2.626815955111787 31.325028613085273 0 0 0
333 1 -0.5725900075154959 -2.6106108293600214 28.569530197921946 0 0 0
4 1 -0.14953617399755093 2.5526080427777798 28.082500529327074 0 0 0
291 1 -0.3648820650707612 2.543606338511621 29.496607554185324 0 0 0
315 1 -0.8837468529056185 -2.381834923833161 34.956053463851696 0 0 0
231 1 -0.5327437610306216 2.585116703452723 40.18414466426984 0 0 0
232 1 -1.63470220985388 1.8857510784855742 40.74607938625039 0 0 0
252 1 -1.3280209665874425 2.3240906426657846 36.524376963796456 0 0 0
253 1 -1.388908962623601 2.1810034386323025 37.937959285556765 0 0 0
254 1 -2.3111371337400892 1.2620676045967902 38.466178547833245 0 0 0
255 1 -2.363748522496997 1.047609675863896 39.86266812033279 0 0 0
256 1 -2.659036777642867 -0.19019195971002253 40.3754731636746 0 0 0
257 1 -2.6258339571463747 -0.34739859370063275 41.776385898218905 0 0 0
277 1 -2.2547370855026685 1.6207904740641386 35.65003352132367 0 0 0
278 1 -2.7031214539889055 0.4214914034923803 36.19982797339084 0 0 0
279 1 -2.657346157330206 0.19496404338784995 37.6027105130188 0 0 0
280 1 -2.4873221756357458 -1.1524558402591425 38.11289656860732 0 0 0
281 1 -2.393396872459202 -1.2697215566007083 39.53676884245721 0 0 0
282 1 -1.5754485811947256 -2.296000112457197 40.08007450460204 0 0 0
283 1 -1.3822511614431654 -2.3797526433514635 41.52596872249747 0 0 0
297 1 -2.557652536834992 -0.7295911487980927 35.33254971209957 0 0 0
298 1 -1.8265495625087107 -1.8396281526035219 35.83405831283319 0 0 0
299 1 -1.7262933764004698 -1.9486322347743132 37.31101643976333 0 0 0
300 1 -0.5951580517239661 -2.606646125885822 37.84683125768414 0 0 0
301 1 -0.4313811800394088 -2.674674361136029 39.25728860249218 0 0 0
251 1 -0.020038959130952404 2.6372430103138593 36.000973871125495 0 0 0
230 1 -0.3170816548273871 2.5074070951843193 38.77504114438587 0 0 0
200 1 -1.3935292290809562 2.3722130429148667 47.202120205344855 0 0 0
201 1 -1.5568735741556163 2.2157563406639262 48.631255841018906 0 0 0
214 1 -0.7632483613101954 2.3651296177886523 43.03205194899877 0 0 0
215 1 -1.0127821270349981 2.407177457823151 44.41579365482355 0 0 0
216 1 -1.9868420728679954 1.600166089124746 44.97387327781272 0 0 0
217 1 -2.1876984205459475 1.5127362813609664 46.382376328922476 0 0 0
218 1 -2.5844474550077448 0.2552218229108786 46.905292704317425 0 0 0
219 1 -2.6889626675840352 0.027393567916891248 48.31870959255948 0 0 0
220 1 -2.380705106082907 -1.257774887301359 48.921928558078605 0 0 0
233 1 -1.7466225397104376 1.8280763804267404 42.135898869232314 0 0 0
234 1 -2.516657270185754 0.7831910825957162 42.683272345438965 0 0 0
235 1 -2.625527070802831 0.6385584928343258 44.11145762102312 0 0 0
236 1 -2.5757261703961816 -0.7241714212430022 44.65005773255984 0 0 0
237 1 -2.438292823161033 -0.8468776051634677 46.059285695053674 0 0 0
238 1 -1.7968356021307161 -1.9536265642548096 46.60658072187935 0 0 0
239 1 -1.6316338348107857 -2.0207385249150067 48.05488289370269 0 0 0
240 1 -0.3254073042048225 -2.423190439497199 48.57097136708974 0 0 0
258 1 -2.2268662148968867 -1.615181772384955 42.37957391194605 0 0 0
259 1 -2.034122576695745 -1.738906535258733 43.79958525156884 0 0 0
260 1 -0.8763659237212237 -2.496532161339468 44.32393679269204 0 0 0
261 1 -0.6980105450748526 -2.437463122445461 45.73699205711177 0 0 0
284 1 -0.028906061838888126 -2.615628081637623 42.06423059154841 0 0 0
199 1 -0.13311275447005927 2.66529906963471 46.63810041573877 0 0 0
182 1 -0.9246960654103424 2.3429675335133457 53.69911310228047 0 0 0
183 1 -1.086181322732085 2.1849043467665097 55.10471447704615 0 0 0
184 1 -2.0895639400726695 1.4093503667535534 55.6864380457818 0 0 0
188 1 -0.4801373336914372 2.5939080356555695 49.47437074700485 0 0 0
189 1 -0.6281522225074951 2.545152539637048 50.88138393413749 0 0 0
190 1 -1.7578581162561566 1.939235610090142 51.454295794782894 0 0 0
191 1 -1.9112583274528574 1.726126895430856 52.86489138057463 0 0 0
192 1 -2.5402132115415754 0.578647738471254 53.4205714076208 0 0 0
193 1 -2.6228909034350614 0.375878315912586 54.82203946640743 0 0 0
194 1 -2.5294688434432566 -0.9865595085970701 55.36322310169372 0 0 0
202 1 -2.452755818496255 1.1716241067250437 49.14163214150478 0 0 0
203 1 -2.4609168589131567 0.9623721508254561 50.574954565654245 0 0 0
204 1 -2.68242284846257 -0.37887984874793124 51.127801787922564 0 0 0
205 1 -2.5599892460796068 -0.5186386614301132 52.554644506977866 0 0 0
206 1 -1.9132727327905534 -1.656357596094777 53.117284068593634 0 0 0
207 1 -1.8263924456673217 -1.8996470670614276 54.51641630281172 0 0 0
208 1 -0.6513355922582865 -2.475312580777738 55.08602168757314 0 0 0
221 1 -2.3010461860532536 -1.5032011143401032 50.33798955441697 0 0 0
222 1 -1.2054010021453447 -2.263154465901444 50.84830063849006 0 0 0
223 1 -0.9980925027219772 -2.34318917361809 52.26779518003006 0 0 0
241 1 -0.10042506052987311 -2.4883495757513048 49.960814032810745 0 0 0
75 1 2.559559486408584 1.0832955733476382 4.261232995312868 0 0 0
76 1 1.8096160439434592 2.152477762181252 4.773976333577722 0 0 0
77 1 1.5902062337139804 2.193380373734977 6.164166910443654 0 0 0
78 1 0.4140152024358337 2.7234080056209256 6.739199930560892 0 0 0
98 1 2.1926427504861836 1.8146139876613672 0.5509852910896476 0 0 0
99 1 2.036669101924307 1.8934624692077437 1.9931983554544508 0 0 0
100 1 0.8617994141434675 2.566764676155278 2.491793611330957 0 0 0
101 1 0.7550223498683412 2.639897911260428 3.917889278356626 0 0 0
172 1 2.693565747883987 0.8874844583901761 2.859454997018526 0 0 0
156 1 1.4258538597652854 -2.114603470150109 5.418232579453009 0 0 0
157 1 1.5560063490942089 -1.9829064719953238 6.818453218879864 0 0 0
162 1 0.8593553047510887 -2.3683339765292692 1.1662113491598227 0 0 0
163 1 1.0537584077697357 -2.1987547218126715 2.598329784103829 0 0 0
164 1 2.071617021499119 -1.4352173620622521 3.157854192179616 0 0 0
165 1 2.231121503906973 -1.3070991766615603 4.5694250283279905 0 0 0
166 1 2.706675769740203 -0.06300799358886978 5.103695348376453 0 0 0
167 1 2.738472231412307 0.14465719267378102 6.512468008939946 0 0 0
168 1 2.3640154928786474 1.4259762663205944 7.037070957056714 0 0 0
169 1 1.8248264435227985 -1.7704196934461414 0.34744401107588013 0 0 0
170 1 2.483897022002615 -0.5721747237266485 0.912210963593757 0 0 0
171 1 2.5964501957788735 -0.4006861629798403 2.3019900358507854 0 0 0
155 1 0.20434469335616373 -2.529959555036111 4.904045982870061 0 0 0
37 1 2.682989286245977 0.6174986915528854 10.759128554487368 0 0 0
38 1 2.051821720678486 1.8147922366493634 11.26908162057154 0 0 0
39 1 1.9678949134849646 1.9201991103266063 12.682795178994338 0 0 0
40 1 0.8600258104456072 2.5066319117156532 13.211712468547239 0 0 0
55 1 2.237982488771426 1.580329378630696 8.458233782307934 0 0 0
56 1 1.3043869750835535 2.4258970359386756 9.002746717697617 0 0 0
57 1 1.1243467333615582 2.4756751704575044 10.430150749141053 0 0 0
160 1 2.733242325701075 0.46250602323796675 9.309445210124043 0 0 0
79 1 0.16785427501041023 2.739282759673388 8.145268030556757 0 0 0
130 1 1.183247413897439 -2.39153049305548 11.89366464616023 0 0 0
131 1 1.3294938927484927 -2.308051298308623 13.326756395328912 0 0 0
132 1 2.2695624146102418 -1.3995547005869455 13.893011633910563 0 0 0
144 1 0.5384182121301757 -2.4890183632627916 7.671263911641537 0 0 0
145 1 0.7218580175758582 -2.496168449059019 9.05157244752207 0 0 0
146 1 1.7948625490798378 -1.7852071009827672 9.651024314915658 0 0 0
147 1 2.0447428350238557 -1.6891223176955983 11.015843888858369 0 0 0
148 1 2.638878757648869 -0.5338875563207693 11.584634001372278 0 0 0
149 1 2.668737066604169 -0.35203409942961095 12.989418808057119 0 0 0
150 1 2.5988442307004607 0.9823900768155871 13.54304503116383 0 0 0
158 1 2.451040042621642 -1.0350819501036126 7.332233777800981 0 0 0
159 1 2.4889442240008535 -0.8723220238226918 8.73187617001034 0 0 0
13 1 2.2282407557523993 1.5140331863855703 19.21019671514438 0 0 0
14 1 1.1091782930197835 2.241585109349347 19.719893210597046 0 0 0
23 1 2.5320479578741275 1.108534808522509 14.959380499000286 0 0 0
24 1 1.7120076837453708 2.174374667382507 15.513151800849755 0 0 0
25 1 1.5208965345647842 2.1574129506189927 16.954009567611173 0 0 0
26 1 0.23187471575092666 2.4379288327428927 17.438738706619507 0 0 0
27 1 0.01935980016773281 2.4098963776172084 18.80937552249466 0 0 0
41 1 0.6556116881635194 2.536283995766681 14.602367671669633 0 0 0
90 1 0.7254597238294456 -2.5624889139760683 18.468554560892834 0 0 0
91 1 0.8606430464134004 -2.5428864142254786 19.881111922821653 0 0 0
92 1 2.0265149692847215 -1.9254599828195689 20.382467818664534 0 0 0
114 1 1.5753985996225992 -2.1636296331676355 16.137961641272383 0 0 0
115 1 1.6784015053420813 -2.0150496394663024 17.575569926269043 0 0 0
116 1 2.5400885303721816 -1.015018091145889 18.082905251157307 0 0 0
117 1 2.57588368310803 -0.8620459126843887 19.55391284719058 0 0 0
118 1 2.6425290096199214 0.47941072523022166 20.0735998834477 0 0 0
133 1 2.3253069831793165 -1.266116436247526 15.302437621297935 0 0 0
134 1 2.7805164131294817 -0.03620503833102418 15.817871878809868 0 0 0
135 1 2.7117272409192448 0.1539714095468512 17.265663449489576 0 0 0
136 1 2.301109158034632 1.3713883516630738 17.780416555151618 0 0 0
112 1 0.24383078187884963 -2.698866623359686 14.16938287540056 0 0 0
113 1 0.36702693938803094 -2.7498224045996267 15.622810947016818 0 0 0
1 1 2.2110783026940775 1.1539886034156783 25.69576388783412 0 0 0
2 1 1.28263424296449 2.108159785845092 26.157910024018516 0 0 0
3 1 1.085050661552304 2.0909523166521993 27.55439800888963 0 0 0
5 1 2.584763001449674 0.6213312603670302 21.491648645946878 0 0 0
6 1 1.7670049557519436 1.6740469721024815 21.959505246885122 0 0 0
7 1 1.577118928729894 1.824198401415176 23.366857371386665 0 0 0
8 1 0.40084148470897285 2.396985867399935 23.89552146674265 0 0 0
9 1 0.23785983057115112 2.498899410644632 25.26331378929814 0 0 0
15 1 0.880635581528867 2.3149723044796984 21.080647822831722 0 0 0
53 1 0.44456262652914336 -2.684339412905222 26.343354136483594 0 0 0
54 1 1.5948445469904433 -2.096580040869158 26.91399115185489 0 0 0
70 1 1.2070481825461425 -2.425366693186908 22.67048445447066 0 0 0
71 1 1.387864223921057 -2.3654547143005926 24.087564911431127 0 0 0
72 1 2.312779854474455 -1.421016998519635 24.60874398903196 0 0 0
73 1 2.337641101704466 -1.2178759966384136 26.046024817280497 0 0 0
74 1 2.5691667265891165 0.06938854897923782 26.599536010802915 0 0 0
93 1 2.1476497577146914 -1.73709961265008 21.809405568677874 0 0 0
94 1 2.6330662028510052 -0.5285360674681842 22.337644627097415 0 0 0
95 1 2.62541579396222 -0.3226489625704358 23.76860769765643 0 0 0
96 1 2.3102463605034287 0.9660301639928655 24.252797683003312 0 0 0
269 1 2.54057656294909 0.2634015190098184 27.960739288286902 0 0 0
52 1 0.26822043232448095 -2.621686492638278 24.925685428171825 0 0 0
344 1 2.2623166392664262 0.6402136178558757 30.690828686277033 0 0 0
247 1 2.1935182442529726 0.8346386607832338 32.09653876388662 0 0 0
248 1 1.4552337429147006 1.9410686103430883 32.62892161850782 0 0 0
249 1 1.325085490102822 2.052760449361395 34.0126001575888 0 0 0
250 1 0.13900422766834097 2.682870852979734 34.56020548876788 0 0 0
270 1 1.9689592676330399 1.4478591972799586 28.441290128506253 0 0 0
271 1 1.7619622418468626 1.5792061272019648 29.835511492244986 0 0 0
272 1 0.6899805350347444 2.370531970356278 30.35970584829182 0 0 0
273 1 0.5267632417286195 2.517725237089009 31.788066196832382 0 0 0
343 1 2.4332328030474653 -0.6762346294537034 30.234094517268904 0 0 0
328 1 1.270072309132119 -2.3411873060417414 33.25160877494563 0 0 0
329 1 1.45060458520397 -2.2084340071356867 34.658272224153954 0 0 0
334 1 0.6970517398435636 -2.4986058881012836 29.126374561319075 0 0 0
335 1 0.943857014054306 -2.4772772547034747 30.531729493798892 0 0 0
336 1 2.0130041076116894 -1.7230515439112424 31.04002744117486 0 0 0
337 1 2.1811543646452485 -1.6030339369782356 32.42899062586915 0 0 0
338 1 2.5223211602564493 -0.28462571244204377 32.90823135003736 0 0 0
339 1 2.4266106548449127 -0.09340546235777492 34.318527977795746 0 0 0
340 1 2.111394592473591 1.1863161262064805 34.82883509609696 0 0 0
341 1 1.6864570789979345 -1.9531003208337703 28.306912355909414 0 0 0
342 1 2.363143350971037 -0.8409848048630206 28.79882739045843 0 0 0
327 1 0.011504275921417914 -2.6653677901332973 32.718756084544324 0 0 0
209 1 2.417801529441659 0.4456086497076757 38.601226667631025 0 0 0
210 1 1.9761845958259716 1.7033062912840762 39.07077337401843 0 0 0
211 1 1.8169134873932833 1.8409016425011915 40.48486811436683 0 0 0
212 1 0.6896378572848147 2.594525994923966 41.010256853826675 0 0 0
227 1 2.090276995445276 1.4065829133971381 36.236962022771536 0 0 0
228 1 1.171905481204814 2.3836273083616555 36.79304558220598 0 0 0
229 1 0.9925040540024586 2.3684930668647186 38.219186684639276 0 0 0
332 1 2.5105035687376445 0.3379632456809828 37.14228255741217 0 0 0
331 1 2.2828274773759785 -0.9325198319196488 36.60477359706089 0 0 0
302 1 0.8718227087963327 -2.4491242429281765 39.76333557602179 0 0 0
303 1 1.0534189194852934 -2.3191905562271464 41.1810765224084 0 0 0
304 1 2.0571605634226966 -1.415363566007116 41.74194587862799 0 0 0
316 1 0.37617424903576796 -2.6641566605377034 35.48667727439574 0 0 0
317 1 0.5870580897401704 -2.6408270033130687 36.93657017708984 0 0 0
318 1 1.745244468627461 -1.962551622461241 37.493347069281256 0 0 0
319 1 1.852612353317988 -1.876744644495825 38.91857852118833 0 0 0
320 1 2.4350531023400737 -0.6829582853096093 39.43089433288535 0 0 0
321 1 2.449960495354347 -0.3984432861369562 40.82859831880149 0 0 0
322 1 2.3561589193110772 0.8947487401399307 41.33180978388258 0 0 0
330 1 2.2453501619449807 -1.1656707361919425 35.2217038642254 0 0 0
185 1 2.125969476861429 1.734596551484026 46.9678886983168 0 0 0
186 1 1.0335314176011015 2.511607568383321 47.50774684805851 0 0 0
195 1 2.3592327462354357 1.185047891415916 42.70767658348697 0 0 0
196 1 1.624557533759572 2.2979030372393248 43.253761528775414 0 0 0
197 1 1.4119007642476542 2.3927330372401756 44.69905251977318 0 0 0
198 1 0.09379711860018253 2.6859364510487533 45.234179427089714 0 0 0
308 1 2.2441571488764325 1.582386619360606 45.554081206715274 0 0 0
213 1 0.5058801991209496 2.658437934162902 42.46543807003023 0 0 0
262 1 0.5916384730944962 -2.3337964762363748 46.2337544737796 0 0 0
263 1 0.7595865064575846 -2.248927048029536 47.66481521756742 0 0 0
264 1 1.9072105590319965 -1.5941781819442369 48.199428999567566 0 0 0
286 1 1.4539662091535925 -2.0042232587666935 43.9929055849436 0 0 0
287 1 1.5952362879511515 -1.8901355079881652 45.42664971803433 0 0 0
288 1 2.392076540406798 -0.7910049810554405 45.90851124264819 0 0 0
289 1 2.5062151747732173 -0.6398987712764774 47.359362583923605 0 0 0
290 1 2.611979080261925 0.6950412141794817 47.90911141040539 0 0 0
305 1 2.1081203283237295 -1.1379342050161685 43.11727394669874 0 0 0
306 1 2.528122827358432 0.09885290264090928 43.61548507715283 0 0 0
307 1 2.568628794523247 0.31107413923847904 45.01129394391425 0 0 0
285 1 0.2404000197629103 -2.584344070758385 43.42181833997924 0 0 0
97 1 2.6228949656338716 0.5464523533282616 55.80843792879882 0 0 -1
173 1 2.2953368290154996 1.4169866743158055 53.49564971329231 0 0 0
174 1 1.4107575767536817 2.3521762281454768 54.02280717730052 0 0 0
175 1 1.2747935213155188 2.536880390929344 55.46323262675015 0 0 0
177 1 2.5410050446324375 0.8634346600055564 49.30124758570473 0 0 0
178 1 1.7859673491520878 1.9408396396273353 49.77547524202221 0 0 0
179 1 1.682414690160002 2.0974538826878764 51.171005441846454 0 0 0
180 1 0.4944471107217082 2.676811285362694 51.734469074858175 0 0 0
181 1 0.29624843032401077 2.6341030892748742 53.17365292687662 0 0 0
187 1 0.8369619149742741 2.460508655252101 48.949578650262545 0 0 0
225 1 0.45503403452697905 -2.417424211663975 54.16034843142172 0 0 0
226 1 1.5734986569908054 -1.786201490668094 54.736652777142304 0 0 0
242 1 1.1927480933291033 -2.2695200657491106 50.49045461751152 0 0 0
243 1 1.3190942122710954 -2.1041351416295964 51.94560721899836 0 0 0
244 1 2.2845235502674615 -1.120697418928218 52.44216350363764 0 0 0
245 1 2.3311431107584895 -0.9696135278410535 53.868627294671256 0 0 0
246 1 2.6143927654552273 0.38280912988202065 54.36926779615527 0 0 0
265 1 2.1017283511759226 -1.4992343748217218 49.661825161357335 0 0 0
266 1 2.5743988643553672 -0.26032190105696623 50.17207974728301 0 0 0
267 1 2.61837896056834 -0.07749997023849403 51.549979804334356 0 0 0
268 1 2.347066044104111 1.2086911793150081 52.09903476788283 0 0 0
224 1 0.2605920643674836 -2.4936608759270005 52.75571285449608 0 0 0

Velocities

102 -4.402605392866462 -1.3643110437987438 -1.2454731314827934
103 -2.7096533329090264 4.723779144000555 -2.2265120646159806
104 2.9021637723889713 -3.6282779574894555 0.6524384611846835
120 7.573649432606827 -6.658675961221762 0.022527387321026937
121 -3.709141851225242 -11.56817980233229 -0.1821846158500378
122 -5.20685552155128 -0.8135976859078544 5.4995724278274585
123 6.192736070112752 -0.6067475318604202 1.3907019445744098
124 1.35163531754327 1.7714732595363742 1.6877629478721121
137 0.22878567541208195 4.468423029446902 -12.754992887120931
138 0.2274552425725891 4.700864730413432 12.331630675747036
139 1.1465702010470866 -2.238429814338656 -0.30701651843535577
140 4.736207359148522 2.451426941052563 2.4342860407435336
141 3.966365954777073 -8.452669495961919 0.2516986563958351
142 -2.55697489674882 6.343157498345558 0.014091115952947042
151 -10.616900429046916 -7.255248384146959 -7.6430856106589316
152 6.979376597722826 2.727046190631511 -8.99777609553102
153 1.5110746666621087 1.1719003460730182 3.045978694094762
154 -0.663498654196677 2.36863101187518 7.917661049585207
161 10.166673877823756 -4.872933315699249 -11.122588334233928
119 10.673814591273315 -15.216513982042006 2.298613195568836
176 6.734378642169927 4.487466019048862 -3.7941523902449927
59 7.7167459929264 -3.9839528327501093 2.777666911302923
60 2.5132297201961236 1.0560100983883012 0.9596032271424286
80 -0.25054118750188314 8.741078847630632 -5.309920176625337
81 -2.880569722235352 -1.467729348585596 0.1671324350283422
82 -7.243545626054119 -0.10224174855704057 -0.4601440874727094
83 -4.736501765122784 0.7987909747864427 4.401674149120902
84 0.42080292545655695 3.5117111415068103 -5.686612213744247
85 2.061374323127149 1.4312105068069365 -4.598307900925802
105 -0.6852749557483732 -4.049534023453551 8.78012562638391
106 -1.4206845372891252 5.9024182922807915 -9.873345129297173
107 -3.1212922957458398 -4.0392706027358 4.329801852759473
108 -3.5778270541252115 7.459334700213918 1.356583654246623
109 6.980470440117023 -1.460343800981975 -3.738455431170181
110 -2.3858333550477546 -5.017214504252065 -7.051487014451948
111 1.0219729243439237 6.011264189155516 -3.6761728404286607
125 1.073868172140933 -3.01136548349257 -3.447318159866521
126 0.20968656611841957 -2.033619658685986 1.6180603849568584
127 3.039897255166772 4.854692948977934 2.8367780225278656
128 0.5514469723322828 1.0488462919660737 0.9937073233217398
129 -2.5296248944142787 -3.633928334203634 1.3856194969589353
143 -6.923387458380566 -8.474291012966097 -3.7260447492336297
58 4.383290321980268 4.6093886241964706 -9.280394715605045
28 6.467893476909742 -0.35631586202405935 1.9121697067502694
29 -4.243717506532646 -6.625883884915869 -11.591911789948686
42 8.724598452008868 -9.51890822670113 0.145415258317049
43 3.2852248659488836 6.9480962714750465 1.804099005476804
44 5.25148500843347 2.467639742457198 4.472583790842884
45 -6.911436910455214 7.930278164772544 10.378999756610055
46 4.173296050908847 -0.7771134845950899 -2.1943745647518393
47 4.04596427439795 -1.3197911712824588 -0.782547800320825
48 2.96718768358855 2.3069200758068695 -0.5211643027043356
61 0.5805775815589598 -7.051898360260026 -5.976514875898041
62 3.000299235216654 -4.660490254044582 -3.7714588809887712
63 1.8125583028181127 -5.961043288173999 1.9452325375449155
64 -0.12498303645452552 2.718947453879327 -3.8200633471348167
65 1.6519972749266394 3.4238674146692873 -12.946459556866625
66 7.840757647946519 -2.6557233774635356 1.7178725111120796
67 -7.158995867552045 1.3616899262673987 2.518280598790485
68 -2.478618711872826 6.069152422609749 2.283496836408182
86 -11.364040194813812 8.30797494110516 4.51676614669197
87 -3.0221729521727347 0.40052164851363997 -5.360798086494356
88 0.09236313943238791 2.488944844275527 2.542150289935729
89 -3.8946796545113367 -3.3651632292971136 -6.0839243375522
10 -0.2793220376853886 1.8171199897486803 -2.3929338661237827
11 5.419179725587744 0.405369595544417 -1.3215176682333585
12 8.458248101639638 -6.1249072078068565 5.526262017229836
16 -1.2535029454666156 9.336394125812685 -6.169343386373869
17 6.372721133804072 0.9970123243998215 -2.405964576476989
18 2.923363520881451 -2.0571002172041006 8.32278399987428
19 -0.3219684772091918 -6.88528023505066 -0.13334169612703584
20 -0.9998747051972399 -1.2979141503149207 6.237849598292196
21 -2.0885131675359583 2.3617533141873177 -4.024563693529209
22 -7.130889086514783 6.781202037914356 2.5741996232044606
30 -1.2548564608026032 -3.405354463402209 -4.9853583322339174
31 -0.2877147116653482 -0.41192013917419923 -3.3039988335982104
32 2.831047719396306 1.094298303163463 -4.587726223051733
33 3.9625702985156632 0.08415426842241741 1.082511034079903
34 10.058279612815271 -6.29107219932501 0.09322795157390898
35 1.3084830840900863 -13.190617388697573 -2.0056182601621373
36 -5.315530197344275 -6.703490896867468 1.7013510485875585
49 -2.8174869871783637 0.9643004473143462 3.73093258901294
50 -4.617171630132071 3.681788243180443 -7.7017991221864985
51 -2.0061480747188254 0.4894678410877038 -4.621253951421681
69 -1.6482975748112598 -9.667842111719422 -4.821952661184171
274 -0.3225631842035137 4.218604602265351 -10.129072274392406
275 5.5440322943007665 2.7427017997860847 -2.5802921936010743
276 -0.8520770935601829 2.3757532529346714 3.3135387437132198
292 1.9925905309189185 2.83046386292395 1.573172436899482
293 -0.27135020038534013 8.724210634259835 -5.782917016971363
294 -1.778343566458742 -6.618325681863721 7.6872110464855465
295 -2.937017449394764 -5.983799398066856 -3.0095723931214264
296 -1.6423925383488998 -1.9685859880596954 -0.6364531726316669
309 4.21096026076961 11.738225642509743 -1.1355835944402202
310 0.6543008930448705 0.792559761996021 -5.2780108554197245
311 3.477371405831117 -1.7330951287356686 -6.54405547723692
312 -1.8983143964696538 1.7717891492950724 -1.5021684603919434
313 -0.1787918994264667 -1.462595637413359 6.329454030174182
314 -2.482946386985909 2.5297255424578253 0.658793518173558
323 -3.4940719030200365 0.26387092310829147 -1.6202895179368844
324 3.7184803309226537 -10.338769171593855 6.516526127167671
325 1.532357583448187 0.052246183095087356 -6.681830695630071