

##---------------INITIALIZATION-------------------------------

units          metal
dimension 	    3
boundary       p p p
atom_style 	atomic
newton 		on


##---------------ATOM DEFINITION------------------------------

read_data 	CNT_99_3_7.87.dat
Reading data file ...
  orthogonal box = (-41.2994 -41.2994 -0.370239) to (41.2994 41.2994 854.969)
  7 by 4 by 64 MPI processor grid
  reading atoms ...
  80856 atoms
  read_data CPU = 0.266 seconds


##---------------FORCE FIELDS---------------------------------
#Set the formula(s) LAMMPS uses to compute pairwise interactions. In LAMMPS, pair potentials are defined between pairs #of atoms that are within a cutoff distance and the set of active interactions typically changes over time

pair_style 	airebo 3.0

#Specify the pairwise force field coefficients for one or more pairs of atom types. The number and meaning of the coefficients depends on the pair style.

pair_coeff     * * /ascldap/users/bcma/CH.airebo C
Reading airebo potential file /ascldap/users/bcma/CH.airebo with DATE: 2011-10-25


##---------------SETTINGS-------------------------------------

timestep 	0.0005
variable   ts equal 0.0005


##---------------COMPUTES-----stresses in 3 directions and min/max on x and z atom coordinates --------------------------

compute    1 all stress/atom NULL
compute    2 all reduce sum c_1[1] c_1[2] c_1[3]
compute    3 all property/atom x y # true atoms position
compute    4 all reduce min c_3[1] c_3[2]
compute    5 all reduce max c_3[1] c_3[2]


variable   Lx equal lx
variable   Ly equal ly
variable   Lz equal lz
variable   Vol equal vol
variable   thickn equal 3.4
#making the damp parameter timestep dependent
fix		1 all npt temp 300 300 0.05 iso 0 0 0.05 #$(100.0*dt)x 0 0 0.5 y 0 0 0.5 z 0 0 0.5
thermo 	2000
##---------------RELAXATION--------------------------------------

run            50000
Neighbor list info ...
  update every 1 steps, delay 10 steps, check yes
  max neighbors/atom: 2000, page size: 100000
  master list distance cutoff = 12.2
  ghost atom cutoff = 12.2
  binsize = 6.1, bins = 14 14 141
  1 neighbor lists, perpetual/occasional/extra = 1 0 0
  (1) pair airebo, perpetual
      attributes: full, newton on, ghost
      pair build: full/bin/ghost
      stencil: full/ghost/bin/3d
      bin: standard
Per MPI rank memory allocation (min/avg/max) = 3.768 | 3.879 | 3.948 Mbytes
   Step          Temp          E_pair         E_mol          TotEng         Press          Volume    
         0   0             -599457.73      0             -599457.73     -14641.584      5835604.8    
      2000   211.51535     -599341.93      0             -597131.32     -6.3996925      5441789.4    
      4000   276.57519     -599425.77      0             -596535.2       4.3847945      5556210.7    
      6000   272.05189     -598487.39      0             -595644.08      2.9090176      5563663.4    
      8000   248.31903     -598153.13      0             -595557.87      6.5034359      5494217.6    
     10000   249.12156     -595826.12      0             -593222.47     -16.775077      5813715      
     12000   326.14279     -597608.38      0             -594199.76     -6.3095425      5562859      
     14000   296.84193     -597053.01      0             -593950.62     -20.952616      5733568.7    
     16000   305.79104     -597867.26      0             -594671.34     -5.1702167      5568881.4    
     18000   275.80824     -597952.24      0             -595069.68     -24.792642      5481626.6    
     20000   304.32375     -598417.94      0             -595237.36     -7.4777973      5597633.8    
     22000   295.50192     -598895.89      0             -595807.51      3.3499185      5548175.5    
     24000   310.61688     -597543.71      0             -594297.35      67.682397      5301254.5    
     26000   302.77536     -597218.43      0             -594054.02     -7.8633773      5479686.6    
     28000   294.78356     -597282.27      0             -594201.39     -20.734663      5540030      
     30000   301.43258     -597666.62      0             -594516.25     -28.145215      5434765.1    
     32000   303.92732     -597495.4       0             -594318.95     -9.6296485      5504204      
     34000   298.93516     -597876.19      0             -594751.92     -51.202645      5455105.5    
     36000   299.759       -597912.98      0             -594780.1      -19.058735      5501269.9    
     38000   303.96448     -597933.48      0             -594756.65     -72.233829      5476118.9    
     40000   299.89094     -597975.18      0             -594840.93     -22.633802      5499035.8    
     42000   299.53584     -597987.02      0             -594856.48     -3.3243744      5481918.9    
     44000   299.00142     -597935.31      0             -594810.34      55.639662      5493937.4    
     46000   301.10354     -597927.33      0             -594780.4       66.275941      5490469.4    
     48000   298.64236     -597976.07      0             -594854.86      17.955148      5507965.3    
     50000   298.42378     -597965.7       0             -594846.78      9.9815285      5512184      
Loop time of 165.116 on 1792 procs for 50000 steps with 80856 atoms

Performance: 13.082 ns/day, 1.835 hours/ns, 302.817 timesteps/s
99.8% CPU use with 1792 MPI tasks x 1 OpenMP threads

MPI task timing breakdown:
Section |  min time  |  avg time  |  max time  |%varavg| %total
---------------------------------------------------------------
Pair    | 11.282     | 41.245     | 90.826     | 373.8 | 24.98
Neigh   | 1.0983     | 2.3092     | 3.73       |  45.4 |  1.40
Comm    | 18.527     | 50.599     | 80.449     | 270.5 | 30.64
Output  | 0.0062732  | 0.0064354  | 0.0070167  |   0.1 |  0.00
Modify  | 38.316     | 68.843     | 120.4      | 271.7 | 41.69
Other   |            | 2.114      |            |       |  1.28

Nlocal:        45.1205 ave         132 max           0 min
Histogram: 716 130 49 1 214 250 160 17 161 94
Nghost:        817.504 ave        1303 max           0 min
Histogram: 128 250 6 0 0 111 281 457 303 256
Neighs:              0 ave           0 max           0 min
Histogram: 1792 0 0 0 0 0 0 0 0 0
FullNghs:      11940.4 ave       38843 max           0 min
Histogram: 800 95 1 155 212 273 0 2 159 95

Total # of neighbors = 21397234
Ave neighs/atom = 264.63384
Neighbor list builds = 944
Dangerous builds = 4


##---------------DEFORMATION--------------------------------------
unfix              1
reset_timestep     0
fix		1 all npt temp 300 300 0.05 x 0 0 0.05 y 0 0 0.05 #$(100.0*dt)
fix        2 all ave/time 1 100 100 c_2[1] c_2[2] c_2[3]
fix        3 all ave/time 1 100 100 v_Lx v_Ly v_Lz v_Vol
fix        4 all  ave/time 1 100 100 c_4[1] c_4[2]
fix        5 all ave/time 1 100 100 c_5[1] c_5[2]
variable   srate equal 1.0e9
variable   srate1 equal "v_srate / 1.0e12"
fix		6 all deform 1 z erate ${srate1} units box remap x
fix		6 all deform 1 z erate 0.001 units box remap x
run            100
Per MPI rank memory allocation (min/avg/max) = 3.928 | 3.972 | 4.363 Mbytes
   Step          Temp          E_pair         E_mol          TotEng         Press          Volume    
         0   298.42378     -597965.7       0             -594846.78      9.9815285      5512184      
       100   299.38808     -597966.91      0             -594837.91      467.91294      5503321.6    
Loop time of 0.485465 on 1792 procs for 100 steps with 80856 atoms

Performance: 8.899 ns/day, 2.697 hours/ns, 205.988 timesteps/s
99.8% CPU use with 1792 MPI tasks x 1 OpenMP threads

MPI task timing breakdown:
Section |  min time  |  avg time  |  max time  |%varavg| %total
---------------------------------------------------------------
Pair    | 7.5818e-05 | 0.1038     | 0.30882    |  30.1 | 21.38
Neigh   | 0          | 0          | 0          |   0.0 |  0.00
Comm    | 0.00012482 | 0.11807    | 0.31999    |  26.2 | 24.32
Output  | 0.00022153 | 0.00022963 | 0.00025041 |   0.0 |  0.05
Modify  | 0.1478     | 0.25907    | 0.48089    |  22.9 | 53.37
Other   |            | 0.004292   |            |       |  0.88

Nlocal:        45.1205 ave         131 max           0 min
Histogram: 714 129 52 1 215 238 169 19 144 111
Nghost:        817.897 ave        1306 max           0 min
Histogram: 128 250 6 0 0 123 280 454 295 256
Neighs:              0 ave           0 max           0 min
Histogram: 1792 0 0 0 0 0 0 0 0 0
FullNghs:      11940.4 ave       38396 max           0 min
Histogram: 785 110 1 133 213 292 2 2 126 128

Total # of neighbors = 21397138
Ave neighs/atom = 264.63266
Neighbor list builds = 0
Dangerous builds = 0
##---------------THERMO-OUTPUTS--------------------------------------
variable cntdiameter equal ((f_5[1]-f_4[1])+(f_5[2]-f_4[2]))/2
#actual volume of cnt
variable   CorVol equal 3.14*v_cntdiameter*v_thickn*f_3[3]
#convertion factor of stress from barr to GPA
variable   ConvoFac equal 1/1.0e4
variable   sigmaxx equal f_2[1]*v_ConvoFac/v_CorVol
variable   sigmayy equal f_2[2]*v_ConvoFac/v_CorVol
variable   sigmazz equal f_2[3]*v_ConvoFac/v_CorVol
variable   StrainPerTs equal v_srate1*v_ts
variable   strain equal v_StrainPerTs*step
thermo 	100
thermo_style custom step temp v_strain v_sigmaxx v_sigmayy v_sigmazz pe ke lx ly lz vol v_cntdiameter v_CorVol
thermo_modify lost warn


##---------------DEFORMATION--------------------------------------
dump           1 all atom 5000 /ascldap/users/bcma/5thCNTRun/CNT_99_3_7.87/CNT_99_3_7.87.lammpstrj
run            1000000
Per MPI rank memory allocation (min/avg/max) = 4.928 | 4.972 | 5.363 Mbytes
   Step          Temp         v_strain      v_sigmaxx      v_sigmayy      v_sigmazz        PotEng         KinEng           Lx             Ly             Lz           Volume     v_cntdiameter     v_CorVol   
       100   299.38808      5e-05         -0.004171791   -0.0042307012  -0.95926731    -597966.92      3129.0033      80.949169      81.003996      839.27842      5503321.6      80.65731       722682.25    
       200   299.88156      0.0001         0.0042293516   0.0020641996  -0.87617526    -597952.57      3134.1608      80.920805      81.028805      839.32038      5503353.3      80.602381      722226.2     
       300   301.11355      0.00015       -0.00043825577 -0.0008428368  -0.83179774    -597961.82      3147.0368      80.851919      81.060992      839.36234      5501127.8      80.626092      722474.78    
       400   299.10594      0.0002         0.00098283749  0.00014813069 -0.80708581    -597948.34      3126.0545      80.823465      81.074285      839.40431      5500368.5      80.571842      722024.75    
       500   298.51023      0.00025       -0.0025428051  -0.0026674848  -0.72660386    -597948.52      3119.8287      80.746881      81.061903      839.44627      5494592.1      80.450742      720975.58    
       600   298.56864      0.0003         0.0031783803   0.0039886345  -0.65297302    -597960.54      3120.4391      80.676904      81.053294      839.48824      5489521.7      80.487137      721337.8     
       700   298.665        0.00035       -0.00014577629 -0.0015563621  -0.58322236    -597962.75      3121.4461      80.607939      81.065674      839.5302       5485941.1      80.65246       722855.59    
       800   300.93503      0.0004        -0.002633124   -0.00047882978 -0.5722562     -597963.24      3145.171       80.520001      81.05199       839.57216      5479305.1      80.294207      719680.68    
       900   301.1586       0.00045       -0.00054052796 -2.0291743e-05 -0.61596067    -597965.86      3147.5076      80.429303      81.022078      839.61413      5471386.8      80.306241      719824.52    
      1000   301.39159      0.0005         0.00097576638  0.0037505742  -0.60830685    -597985.73      3149.9426      80.340143      81.003542      839.65609      5464344.3      80.26932       719529.54    
      1100   300.28511      0.00055       -0.0008411196  -0.0004575307  -0.62947519    -597991.8       3138.3785      80.269059      80.99604       839.69806      5459276.6      80.140794      718413.35    
      1200   300.24337      0.0006        -0.0020957839  -0.0039249993  -0.54859127    -598000.31      3137.9422      80.156854      80.953514      839.74002      5449055.4      80.106341      718140.38    
      1300   300.57898      0.00065        0.0020637758   0.0023396614  -0.47616549    -598012.89      3141.4498      80.070039      80.9057        839.78198      5440210.6      80.164482      718697.52    
      1400   299.09421      0.0007         0.0018941816   0.0013463102  -0.41643105    -598012.81      3125.932       79.962476      80.875153      839.82395      5431122.5      80.203856      719086.46    
      1500   299.16277      0.00075       -0.0012931659  -0.0025477794  -0.35544589    -598015.56      3126.6486      79.875805      80.838803      839.86591      5423068.4      80.212798      719202.57    
      1600   301.33047      0.0008        -0.0041504093  -0.0026325149  -0.3366202     -598013.54      3149.3038      79.738982      80.771946      839.90788      5409571.8      80.295101      719976.48    
      1700   301.71226      0.00085        0.0058854935   0.0047505814  -0.28859279    -598009.02      3153.2941      79.64819       80.702588      839.94984      5399042.2      80.279364      719871.34    
      1800   301.76184      0.0009         0.00025738623 -0.00029177052 -0.2571776     -598024.41      3153.8123      79.551402      80.655872      839.9918       5389629.1      80.108213      718372.5     
      1900   300.93008      0.00095       -0.0020547655  -0.00091424188 -0.2216456     -598034.9       3145.1193      79.445646      80.571095      840.03377      5377075.2      80.035152      717753.18    
      2000   301.68598      0.001          0.00073280176 -0.0013453557  -0.22721193    -598061.41      3153.0194      79.345735      80.47927       840.07573      5364460.6      80.142697      718753.55    
      2100   300.06191      0.00105        0.0044692256   0.002105605   -0.19188767    -598063.53      3136.0457      79.26857       80.393998      840.11769      5353832.5      79.984831      717373.58    
      2200   299.92198      0.0011        -0.002290911   -0.0020226934  -0.17449518    -598074.63      3134.5833      79.127938      80.338723      840.15966      5340926.5      79.88208       716487.8     
      2300   299.0683       0.00115       -0.0021518997   0.00032293973 -0.12909822    -598076.8       3125.6612      78.986337      80.216893      840.20162      5323549.8      79.826863      716028.3     
      2400   300.42245      0.0012         0.0029570474   0.001726148   -0.12140178    -598098.65      3139.8139      78.867795      80.1281        840.24359      5309941.7      79.849176      716264.22    
      2500   300.25213      0.00125       -0.0015328297   0.00061083044 -0.12652639    -598120.83      3138.0338      78.7185        80.029572      840.28555      5293637.5      79.652189      714532.89    
      2600   298.834        0.0013        -0.0023296294  -0.0030315768  -0.072633443   -598106.25      3123.2125      78.587888      79.94309       840.32751      5279406.8      79.589636      714007.4     
      2700   301.75594      0.00135       -0.0017637293   0.0035446335  -0.072255058   -598129.3       3153.7506      78.440983      79.829024      840.36948      5262282        79.451914      712807.48    
      2800   301.32633      0.0014         0.0049278845   0.00040831954 -0.048489219   -598139.14      3149.2606      78.311073      79.721496      840.41144      5246752.4      79.403041      712404.58    
      2900   299.78618      0.00145       -0.00084865658 -0.0007503745  -0.018724227   -598138.47      3133.164       78.178986      79.65611       840.45341      5233868        79.305046      711560.9     
      3000   301.4362       0.0015        -0.0025167717  -0.0017868071   0.041140866   -598167.69      3150.4089      78.030506      79.568664      840.49537      5218453.5      79.157328      710270.97    
      3100   300.39316      0.00155       -0.00085574078  7.5040361e-05  0.12285759    -598171.13      3139.5077      77.882716      79.47098       840.53733      5202435        79.081561      709626.55    
      3200   298.75936      0.0016         0.0045647316   0.0029862019   0.18518149    -598161.95      3122.4324      77.732728      79.41504       840.5793       5189020.1      79.039395      709283.59    
      3300   300.30583      0.00165       -0.00094008119 -0.0016396692   0.17424046    -598183.84      3138.595       77.601002      79.364525      840.62126      5177190.2      78.807687      707239.6     
      3400   300.81353      0.0017        -0.0024771906  -0.00078842155  0.16444304    -598216.27      3143.9012      77.427265      79.302722      840.66323      5161834.4      78.710611      706403.68    
      3500   299.65393      0.00175        0.0024489165   0.0012322502   0.19581712    -598214.12      3131.7818      77.286995      79.222147      840.70519      5147504.8      78.579367      705261.01    
      3600   301.39958      0.0018         0.00071701063  0.00045023097  0.28734223    -598236.28      3150.0262      77.123501      79.20093       840.74715      5135496.3      78.634616      705792.1     
      3700   301.37828      0.00185       -0.0037115394  -0.0034317057   0.31187877    -598248.22      3149.8035      76.992323      79.146332      840.78912      5123483        78.364392      703401.79    
      3800   300.4413       0.0019         0.0024163688   0.0015024893   0.34836468    -598256.59      3140.0108      76.805994      79.095678      840.83108      5108067.5      78.343867      703252.65    
      3900   300.85988      0.00195        0.0013502705   0.0031659994   0.3848609     -598273.26      3144.3856      76.692021      79.045499      840.87305      5097506.1      78.123849      701312.67    
      4000   301.29347      0.002         -0.00069185914 -0.0027930759   0.43458066    -598289.8       3148.9172      76.510068      79.029828      840.91501      5084657.8      78.013627      700358.16    
      4100   302.14637      0.00205       -0.001847476   -0.0031363664   0.44880142    -598314.64      3157.8311      76.365348      78.985158      840.95697      5072424.6      78.011341      700372.59    
      4200   301.23337      0.0021        -0.0020290027   0.0045297433   0.44232251    -598322.95      3148.289       76.176713      78.938788      840.99894      5057176.7      77.908976      699488.48    
      4300   301.51996      0.00215        0.0040520287   0.000900058    0.42355666    -598347.09      3151.2843      76.066535      78.896906      841.0409       5047434.8      77.769908      698274.72    
      4400   300.64226      0.0022        -0.001727902   -0.0033873073   0.45351729    -598358.8       3142.1112      75.901053      78.862394      841.08286      5034502.3      77.735424      697999.93    
      4500   300.66168      0.00225       -0.00022725775  0.0011673673   0.48668407    -598382.25      3142.3142      75.73437       78.769786      841.12483      5017797.5      77.658671      697345.54    
      4600   300.08318      0.0023         0.00168639     0.0014308694   0.54429277    -598396.33      3136.268       75.564566      78.705477      841.16679      5002709.3      77.638383      697198.14    
      4700   300.04153      0.00235        0.00069957508 -0.00050435347  0.60916908    -598408.9       3135.8328      75.397015      78.656577      841.20876      4988764.3      77.48186       695827.28    
      4800   300.61166      0.0024        -0.0046185039  -0.0030236264   0.62334423    -598433.09      3141.7913      75.228232      78.57546       841.25072      4972711.2      77.322599      694431.67    
      4900   300.66416      0.00245        0.0019811592  -0.00011203925  0.66223309    -598451.52      3142.3401      75.028453      78.46889       841.29268      4953026        77.171849      693112.36    
      5000   300.37624      0.0025         0.0030981414   0.0047258089   0.69572373    -598465.75      3139.3309      74.839547      78.420968      841.33465      4937784.4      77.032185      691892.49    
      5100   300.87506      0.00255        0.00018975494 -0.0021866628   0.72173517    -598489.48      3144.5442      74.661645      78.316366      841.37661      4919721.5      76.918047      690901.78    
      5200   301.09937      0.0026        -0.0016755123   0.00034733625  0.7809051     -598510.37      3146.8886      74.415293      78.249206      841.41858      4899527.9      76.728908      689237.25    
      5300   301.49415      0.00265        0.0020928693   0.00079361625  0.81158753    -598533.14      3151.0146      74.212343      78.118716      841.46054      4878260.6      76.620349      688296.41    
      5400   301.20487      0.0027        -0.0026353395   0.0002235128   0.87224717    -598546.59      3147.9912      73.960347      78.032203      841.5025       4856554        76.413546      686472.9     
      5500   300.85603      0.00275       -0.0044865543  -0.0056305905   0.91901214    -598560.5       3144.3453      73.732777      77.887107      841.54447      4832849.1      76.232369      684879.42    
      5600   301.56212      0.0028         0.0031718063   0.0040429555   0.93205199    -598585.8       3151.7249      73.433994      77.753264      841.58643      4805233.6      76.05692       683337.23    
      5700   301.52294      0.00285        0.0047298213   0.0018424187   0.92919383    -598607.65      3151.3155      73.171443      77.622351      841.6284       4780230        75.881194      681792.42    
      5800   300.58328      0.0029         0.00089614064 -0.00029897877  0.94768359    -598622.55      3141.4947      72.876706      77.477864      841.67036      4752349.9      75.601174      679310.31    
      5900   301.147        0.00295        0.0003412607   0.001770119    1.0009812     -598651.81      3147.3864      72.57069       77.334052      841.71232      4723845.7      75.434831      677849.44    
      6000   302.51079      0.003          0.0027526298   0.00070854038  1.0123275     -598694.01      3161.6398      72.268826      77.163706      841.75429      4694068.4      75.187299      675658.83    
      6100   301.51356      0.00305        0.0029533113   0.00045337423  1.0161369     -598712.18      3151.2175      71.937905      77.014947      841.79625      4663798.7      74.971489      673753.07    
      6200   299.84821      0.0031        -1.1052496e-05  0.0013671077   1.0638251     -598725.99      3133.8123      71.62691       76.816828      841.83822      4631921.8      74.663811      671021.48    
      6300   300.56229      0.00315        0.0017435542  -0.00023928093  1.1184861     -598759.48      3141.2754      71.288659      76.64544       841.88018      4599991.7      74.459711      669220.54    
      6400   302.48084      0.0032         0.00051502463  0.001856435    1.1363249     -598808.6       3161.3268      70.943463      76.458189      841.92214      4566761.4      74.166929      666622.34    
      6500   301.59847      0.00325        0.0052281472   0.0010965346   1.1913619     -598830.56      3152.1048      70.583393      76.264765      841.96411      4532314.6      73.835476      663676.27    
      6600   301.38588      0.0033         0.001333358    0.0019266364   1.2138519     -598857.3       3149.883       70.255457      76.036982      842.00607      4498007.3      73.676489      662280.21    
      6700   302.70311      0.00335        0.0030250794   0.00096266063  1.238726      -598901.82      3163.6498      69.8956        75.840529      842.04804      4463628.6      73.340755      659295.15    
      6800   301.91875      0.0034         0.0021724943   0.0022602663   1.2758799     -598926.85      3155.4521      69.537048      75.621101      842.09         4428103.4      73.101885      657180.58    
      6900   300.77012      0.00345        0.00383268     0.0012438118   1.3394386     -598943.23      3143.4475      69.1666        75.409176      842.13196      4392388.8      72.829817      654767.34    
      7000   301.26627      0.0035         0.0019900818   0.0016477383   1.3961165     -598974.48      3148.6329      68.809622      75.192104      842.17393      4357357.6      72.566165      652429.51    
      7100   301.94188      0.00355        0.004228609    0.0013373194   1.4342037     -599009.3       3155.6939      68.426632      74.989852      842.21589      4321664.9      72.237642      649508.19    
      7200   301.49527      0.0036         0.0035765818   0.0012545579   1.4800243     -599031.39      3151.0263      68.063471      74.760646      842.25785      4285803        71.919356      646678.62    
      7300   301.20656      0.00365        0.0028475868   0.0025532024   1.5260433     -599055.04      3148.0088      67.6989        74.545702      842.29982      4250802.5      71.619752      644016.74    
      7400   301.58502      0.0037         0.0027205434   0.0018508553   1.5428542     -599088.24      3151.9642      67.332603      74.335398      842.34178      4216085.6      71.269594      640899.99    
      7500   302.62293      0.00375        0.0045150136   0.0016882697   1.5647735     -599130.23      3162.8118      66.967546      74.102403      842.38375      4180292.4      71.060049      639047.47    
      7600   301.78491      0.0038         0.0025499963   0.0024798588   1.5748809     -599154.75      3154.0534      66.594634      73.86366       842.42571      4143827.6      70.765918      636434.03    
      7700   302.43366      0.00385        0.0060694089   0.0028976871   1.604353      -599197.4       3160.8337      66.201443      73.590518      842.46767      4104332.7      70.413519      633296.28    
      7800   301.60276      0.0039         0.0053982524   0.0036308257   1.6315379     -599221.77      3152.1497      65.79859       73.309013      842.50964      4063954.5      69.966874      629310.52    
      7900   300.92349      0.00395        0.0067526185   0.0042963743   1.6836688     -599240.2       3145.0504      65.367938      73.001582      842.5516       4020625        69.708871      627021.16    
      8000   300.4349       0.004          0.0081477368   0.0066276168   1.7266655     -599257.77      3139.944       64.92807       72.687784      842.59357      3976601.4      69.413277      624393.43    
      8100   300.08956      0.00405        0.0099219951   0.0056349647   1.7713951     -599275.44      3136.3347      64.472015      72.328208      842.63553      3929332        68.921953      620004.7     
      8200   299.92889      0.0041         0.011469749    0.0092438204   1.8862208     -599290.28      3134.6555      64.009622      71.965954      842.67749      3881805.2      68.468362      615954.99    
      8300   299.6062       0.00415        0.011928433    0.0075810181   1.9305701     -599302.21      3131.2829      63.550394      71.591655      842.71946      3834102.1      68.110693      612767.84    
      8400   298.50163      0.0042         0.012035304    0.0097966985   2.0006238     -599299.31      3119.7387      63.101993      71.223659      842.76142      3787668.9      67.752665      609577.15    
      8500   298.55905      0.00425        0.013246386    0.0087156162   2.1333187     -599287.77      3120.3389      62.655985      70.864959      842.80339      3742142.9      67.276415      605322.41    
      8600   296.30159      0.0043         0.013247355    0.010592065    2.2228215     -599235.4       3096.7454      62.200471      70.489983      842.84535      3695463.9      66.888827      601865.04    
      8700   292.55091      0.00435        0.013476426    0.00846532     2.3093913     -599153.28      3057.5458      61.772839      70.135909      842.88731      3651804.4      66.472977      598153.01    
      8800   289.93744      0.0044         0.0098809733   0.0076874716   2.417504      -599061.26      3030.2316      61.373578      69.836567      842.92928      3612896.1      66.148209      595260.24    
      8900   286.98421      0.00445        0.0090588613   0.0051380951   2.5402012     -598948.97      2999.3664      61.040571      69.583046      842.97124      3580426.6      65.712709      591370.67    
      9000   283.03178      0.0045         0.0033321403   0.0026111314   2.651614      -598807.49      2958.0583      60.809394      69.395342      843.01321      3557421.9      65.550768      589942.67    
      9100   282.51263      0.00455        0.00070917916 -0.00069236542  2.7904482     -598685.79      2952.6324      60.689924      69.310684      843.05517      3546278        65.608732      590493.73    
      9200   289.55631      0.0046        -0.0048452009  -0.00036653593  2.8801746     -598639.97      3026.2482      60.694865      69.327236      843.09713      3547590.2      65.424959      588869.04    
      9300   301.46579      0.00465        0.0056491716   0.00049872491  2.8662316     -598665.56      3150.7181      60.833107      69.471049      843.1391       3563223.7      65.663247      591043.21    
      9400   310.35339      0.0047        -0.0033449162   0.0011453809   2.8645246     -598747.43      3243.6054      61.085223      69.682044      843.18106      3589036.6      65.640038      590863.71    
      9500   310.46732      0.00475       -0.0028763445  -0.00333111     2.8764381     -598860.01      3244.7961      61.442054      69.97263       843.22302      3625236.8      65.943134      593621.6     
      9600   310.34842      0.0048        -0.0074685674  -0.0073207113   2.8336299     -598983.4       3243.5534      61.804718      70.31764       843.26499      3664797.5      66.286396      596741.35    
      9700   308.058        0.00485       -0.0096845836  -0.0069088774   2.8429296     -599075.82      3219.6155      62.198362      70.656525      843.30695      3706098        66.533556      598996.2     
      9800   304.58147      0.0049        -0.0098000947  -0.0069852109   2.797179      -599146.78      3183.2812      62.600906      70.998864      843.34892      3748342.8      66.981437      603058.45    
      9900   299.376        0.00495       -0.0091953952  -0.0066902745   2.7904811     -599175.82      3128.8771      62.985985      71.339013      843.39088      3789657.1      67.340954      606325.48    
     10000   296.33014      0.005         -0.0072571372  -0.0062775178   2.8007041     -599185.82      3097.0438      63.367105      71.659668      843.43284      3829915.3      67.743844      609983.37    
     10100   297.88895      0.00505       -0.0099365473  -0.0054949302   2.784169      -599191.02      3113.3354      63.749193      71.981812      843.47481      3870522.4      68.009114      612402.4     
     10200   299.09415      0.0051        -0.0063526456  -0.0065046972   2.8073688     -599152.39      3125.9314      64.120486      72.280615      843.51677      3909420.3      68.407938      616024.34    
     10300   299.66685      0.00515       -0.0079731956  -0.0044112632   2.8515391     -599102.66      3131.9168      64.4825        72.580758      843.55874      3948014.1      68.678034      618487.37    
     10400   301.73137      0.0052        -0.0062907456  -0.0064080699   2.8533432     -599085.81      3153.4938      64.822552      72.885401      843.6007       3985690.8      69.08761       622206.8     
     10500   300.97315      0.00525       -0.0052247477  -0.003162612    2.8644414     -599073.95      3145.5694      65.161592      73.16625       843.64266      4022175.5      69.386343      624928.3     
     10600   297.15394      0.0053        -0.0050967313  -0.0040270202   2.8769674     -599044.32      3105.6536      65.472089      73.444052      843.68463      4056887.5      69.693968      627730.14    
     10700   299.09009      0.00535       -0.004299991   -0.0032645906   2.9201354     -599039.93      3125.8889      65.785842      73.708345      843.72659      4091201.2      69.959949      630157.16    
     10800   300.40714      0.0054        -0.0048447566  -0.0026791438   2.9865736     -599006.18      3139.6538      66.090944      73.955293      843.76856      4124151        70.209993      632440.86    
     10900   300.70142      0.00545       -0.0025081176  -0.0028869835   3.0428705     -598959.59      3142.7295      66.393048      74.187602      843.81052      4156223.3      70.556694      635595.5     
     11000   300.59397      0.0055        -0.0036074105  -0.0011855727   3.068004      -598932.03      3141.6064      66.688793      74.426253      843.85248      4188374.9      70.847817      638249.77    
     11100   299.06081      0.00555       -0.002683868   -0.0024555342   3.1347257     -598899.38      3125.5829      66.976264      74.64404       843.89445      4218948.1      71.104464      640593.68    
     11200   299.97084      0.0056        -0.001723666   -0.0013455315   3.1683796     -598887.2       3135.0939      67.253076      74.873079      843.93641      4249595.3      71.360533      642932.63    
     11300   300.32856      0.00565       -0.00051611037 -0.00089745491  3.2108147     -598867.88      3138.8326      67.50021       75.080917      843.97838      4277263.6      71.589381      645026.55    
     11400   299.00321      0.0057        -0.001556484   -0.0018930286   3.2430884     -598821.25      3124.9809      67.746931      75.283606      844.02034      4304700.6      71.852411      647428.66    
     11500   300.77204      0.00575       -0.002964895   -0.0017034245   3.2920201     -598802.89      3143.4676      67.973469      75.483106      844.0623       4330755.9      72.058789      649320.52    
     11600   300.93224      0.0058        -0.0022622806  -0.0013099986   3.3183171     -598782.42      3145.1419      68.198218      75.677377      844.10427      4356474.7      72.284731      651388.86    
     11700   299.62166      0.00585       -0.0015015748   0.00043288236  3.3435582     -598754.51      3131.4445      68.405264      75.860075      844.14623      4380467.6      72.555996      653865.85    
     11800   300.47651      0.0059         0.0012427124   0.00079933335  3.3883458     -598746.08      3140.3789      68.609591      76.040724      844.1882       4404233.7      72.604314      654333.81    
     11900   300.17537      0.00595        0.0030760277   0.0027844164   3.4164554     -598726.75      3137.2316      68.788115      76.211462      844.23016      4425828.3      72.871559      656774.96    
     12000   298.18923      0.006          0.0038496645  -0.0022337755   3.4610747     -598690.29      3116.4737      68.983394      76.354949      844.27212      4446970        73.059796      658504.23    
     12100   299.06851      0.00605       -0.0033474872  -0.0015575863   3.5165905     -598668.13      3125.6634      69.174014      76.467083      844.31409      4466029        73.270988      660440.57    
     12200   299.92363      0.0061        -0.0014012017   0.0031145795   3.5657091     -598635.01      3134.6006      69.342798      76.597162      844.35605      4484764.7      73.286574      660613.9     
     12300   300.86904      0.00615        0.00028327464  0.00055501817  3.6114151     -598609.78      3144.4814      69.508541      76.749944      844.39801      4504674.8      73.58551       663341.51    
     12400   300.5851       0.0062         0.0019658808  -0.0010290284   3.6510503     -598589.64      3141.5138      69.671151      76.87097       844.43998      4522557.9      73.643247      663894.98    
     12500   299.53847      0.00625        0.0039737521  -0.0020145335   3.6972754     -598577.88      3130.5751      69.846808      76.979173      844.48194      4540567.9      73.858766      665870.97    
     12600   299.68759      0.0063        -0.003676128    0.0038574982   3.7430213     -598564.88      3132.1337      69.991031      77.071523      844.52391      4555628.3      74.006559      667236.55    
     12700   300.20717      0.00635        0.0011097597   0.0023375614   3.7725795     -598548.33      3137.5639      70.131529      77.212939      844.56587      4573376.1      74.064996      667796.59    
     12800   299.50547      0.0064         0.00093727534 -0.0049234109   3.8329197     -598523.03      3130.2302      70.28215       77.30767       844.60783      4589049.4      74.245813      669460.17    
     12900   299.92033      0.00645       -0.0028156092   0.00063611074  3.9126086     -598504.64      3134.5661      70.406801      77.410679      844.6498       4603542.6      74.379534      670699.23    
     13000   300.74934      0.0065        -0.00030895622  0.0020047999   3.9341774     -598492.27      3143.2303      70.508548      77.505747      844.69176      4616086.5      74.381151      670747.12    
     13100   299.86908      0.00655        0.0094014257  -0.00043500405  3.9845748     -598466.87      3134.0304      70.627696      77.61085       844.73373      4630387.2      74.54161       672227.5     
     13200   300.63305      0.0066        -0.0086177751  -0.00021254911  3.970361      -598468.24      3142.0149      70.748199      77.690579      844.77569      4643283        74.630594      673063.4     
     13300   299.73431      0.00665        0.00043582905 -0.00031518211  4.0411849     -598459.03      3132.6219      70.797007      77.794338      844.81765      4652923        74.844471      675025.81    
     13400   299.34978      0.0067         0.0025514378  -0.0014750729   4.0633469     -598442.31      3128.603       70.905646      77.868417      844.85962      4664732.2      74.764717      674340       
     13500   300.03599      0.00675       -0.0023614271   0.0051015345   4.0971875     -598432.9       3135.7748      70.980776      77.958605      844.90158      4675315.6      74.838514      675039.13    
     13600   299.52437      0.0068         0.0016885048  -0.0042928039   4.1094615     -598423.27      3130.4277      71.041257      78.050825      844.94355      4685067.2      74.946081      676042.96    
     13700   299.02139      0.00685        0.00013358767 -0.00049870381  4.1994827     -598410.4       3125.1709      71.090019      78.097694      844.98551      4691331.3      75.17269       678120.74    
     13800   298.63005      0.0069        -0.0015680176   0.002256259    4.2521815     -598386.78      3121.0809      71.132867      78.190971      845.02747      4699998.8      75.255967      678905.68    
     13900   300.93911      0.00695        0.0023545047  -0.0027772077   4.2978678     -598382.92      3145.2137      71.173863      78.2555        845.06944      4706822.3      75.120929      677721.12    
     14000   301.00478      0.007         -0.003620963    0.0046149521   4.347749      -598370.59      3145.9         71.234873      78.315465      845.1114       4714700.9      75.222091      678667.48    
     14100   300.83867      0.00705        0.0044866924  -0.0047834388   4.4017082     -598370.14      3144.1639      71.242517      78.382231      845.15337      4719461        75.279649      679220.5     
     14200   300.5813       0.0071        -0.0029781987   0.0033605882   4.4202971     -598374.02      3141.4741      71.308562      78.417169      845.19533      4726176.4      75.314208      679566.06    
     14300   300.25323      0.00715        0.0011904482  -0.0018850517   4.4398183     -598380.86      3138.0453      71.341629      78.461401      845.23729      4731270        75.305262      679519.07    
     14400   300.13991      0.0072         0.00099816742  0.00046021813  4.5044841     -598378.59      3136.8609      71.397614      78.494848      845.27926      4737236.4      75.341763      679882.19    
     14500   299.0403       0.00725       -0.0029241325   0.0014890644   4.5132235     -598355.97      3125.3685      71.406174      78.55492       845.32122      4741665.7      75.573029      682002.99    
     14600   301.40946      0.0073         0.0052622528  -0.0022982078   4.5703929     -598363.13      3150.1295      71.450211      78.566687      845.36318      4745536.2      75.389406      680379.67    
     14700   301.07422      0.00735       -0.0063903125   0.0053285745   4.600286      -598350.37      3146.6257      71.456572      78.608478      845.40515      4748718.8      75.477946      681212.55    
     14800   299.95602      0.0074         0.005862776   -0.0061660766   4.6711861     -598345.73      3134.939       71.480992      78.634407      845.44711      4752144.5      75.47778       681244.87    
     14900   299.67792      0.00745       -0.0044349129   0.0031020629   4.6963124     -598354.91      3132.0325      71.497662      78.661832      845.48908      4755146.4      75.704669      683326.63    
     15000   299.67386      0.0075         0.0036713046  -0.0021524009   4.7241217     -598365.99      3131.9901      71.495872      78.680829      845.53104      4756411.8      75.58996       682325.11    
     15100   299.45315      0.00755       -0.0030633215   0.0031271418   4.7747861     -598362.39      3129.6834      71.508447      78.69438       845.573        4758303.9      75.756926      683866.19    
     15200   298.9337       0.0076         0.0033307296  -0.0031476381   4.7942198     -598331.25      3124.2545      71.505103      78.693953      845.61497      4758291.7      75.662641      683048.97    
     15300   301.78018      0.00765       -0.0050252949   0.0029411247   4.8507734     -598352.58      3154.004       71.493426      78.676889      845.65693      4756719.1      75.491258      681535.61    
     15400   301.58332      0.0077         0.0055939764  -0.0023846098   4.8961553     -598367.31      3151.9465      71.466218      78.653553      845.6989       4753734.3      75.541182      682020.17    
     15500   299.85977      0.00775       -0.0030948888   0.0045173244   4.9313496     -598361.82      3133.9331      71.473185      78.617252      845.74086      4752239.4      75.738688      683837.28    
     15600   299.67136      0.0078         0.001839724   -0.0061153836   4.9899707     -598365.58      3131.9639      71.419877      78.602028      845.78282      4748010.9      75.48792       681606.94    
     15700   298.52023      0.00785       -0.0011030228   0.0031888771   5.038035      -598357.11      3119.9332      71.384613      78.542908      845.82479      4742332.4      75.505324      681797.92    
     15800   300.9258       0.0079         0.00098995425 -0.00014226698  5.090256      -598367.11      3145.0746      71.320128      78.513214      845.86675      4736492.2      75.574008      682451.98    
     15900   301.27902      0.00795       -0.00052326397  0.0015577854   5.1358831     -598358.98      3148.7662      71.26965       78.487926      845.90872      4731850.1      75.369751      680641.25    
     16000   299.5713       0.008         -0.0021310634  -0.002264713    5.1985718     -598361.4       3130.9182      71.172182      78.46655       845.95068      4724326.3      75.262244      679704.1     
     16100   300.00829      0.00805        0.0024548626  -0.0010216049   5.2402004     -598373.78      3135.4853      71.105826      78.397437      845.99264      4715998.3      75.313181      680197.86    
     16200   301.43513      0.0081        -0.0017765886   0.0045225872   5.2781277     -598394.6       3150.3978      71.023244      78.354697      846.03461      4708186.6      75.344547      680514.9     
     16300   299.60162      0.00815        0.00484531    -0.0030372937   5.349492      -598387.68      3131.2351      70.938628      78.318258      846.07657      4700623.5      75.141446      678714.15    
     16400   300.16088      0.0082        -0.0056550446   0.00079746254  5.370508      -598404.32      3137.0801      70.871306      78.244886      846.11854      4691995.8      75.040073      677832.12    
     16500   299.22926      0.00825        0.0036386623   0.00016157329  5.4094038     -598408.31      3127.3434      70.746061      78.192405      846.1605       4680794.6      74.993926      677448.88    
     16600   298.39189      0.0083         0.001764121    7.6178663e-05  5.4372947     -598419.2       3118.5918      70.663536      78.105969      846.20246      4670397.9      75.078571      678247.14    
     16700   299.31303      0.00835       -0.001720737    0.001408169    5.5215189     -598441.45      3128.2189      70.555156      78.041427      846.24443      4659612.2      74.913556      676789.98    
     16800   299.87899      0.0084         0.00056002835 -0.0024955936   5.5684939     -598437.1       3134.134       70.450752      77.968762      846.28639      4648615.6      74.745554      675305.7     
     16900   300.24725      0.00845       -0.0040104197   0.0001423501   5.6357213     -598433.44      3137.9828      70.356401      77.852491      846.32835      4635696.7      74.676836      674718.3     
     17000   299.73787      0.0085         0.0023560808   0.0021115249   5.7005558     -598433.16      3132.6591      70.204876      77.797746      846.37032      4622689.4      74.661059      674609.2     
     17100   300.64684      0.00855        0.002495768   -0.0023693538   5.7512443     -598454.56      3142.159       70.11189       77.694254      846.41228      4610654        74.392098      672212.3     
     17200   301.01733      0.0086        -0.0021378185   0.0014213517   5.80963       -598473.18      3146.0311      69.970689      77.6026        846.45425      4596168.2      74.265468      671101.33    
     17300   300.06183      0.00865        0.0013301527  -2.9561604e-05  5.8395478     -598478.6       3136.0449      69.836521      77.498127      846.49621      4581406.4      74.225186      670770.58    
     17400   299.76233      0.0087        -0.00022074781  0.0017134043   5.8897505     -598489.61      3132.9147      69.700208      77.395236      846.53817      4566619.7      74.151194      670135.13    
     17500   301.07597      0.00875       -0.0049881117  -0.0010491315   5.9395249     -598519.89      3146.644       69.556025      77.304264      846.58014      4552042.2      73.950344      668353.1     
     17600   300.45758      0.0088         0.004002299   -0.002948619    6.0225094     -598526.55      3140.181       69.38998       77.185426      846.6221       4534419.2      73.90687       667993.3     
     17700   301.44425      0.00885        0.0009837591   0.0012334735   6.092402      -598547.78      3150.4931      69.269243      77.049589      846.66407      4518787.2      73.69907       666148.16    
     17800   301.35808      0.0089        -0.00067797531  0.0032152842   6.1553656     -598563.38      3149.5924      69.091913      76.93716       846.70603      4500865.3      73.520802      664569.77    
     17900   301.02661      0.00895        0.00084865998 -0.0015139633   6.2024428     -598576.11      3146.1281      68.947856      76.814349      846.74799      4484533.7      73.370338      663242.57    
     18000   300.44576      0.009         -0.0011747591  -0.0052694473   6.2552657     -598589.22      3140.0575      68.787909      76.654093      846.78996      4465017.4      73.294086      662586.11    
     18100   300.6511       0.00905       -0.0001039496   0.0017603281   6.3294795     -598606.9       3142.2036      68.628041      76.503416      846.83192      4446104.3      73.203608      661800.98    
     18200   301.23775      0.0091        -0.00058801426  0.005207745    6.3966132     -598633.34      3148.3348      68.448843      76.345797      846.87389      4425577.9      72.888448      658984.41    
     18300   300.33189      0.00915        0.0021552422   0.00011428966  6.4662391     -598642.28      3138.8674      68.277194      76.20098       846.91585      4406324.6      72.764775      657898.88    
     18400   301.58397      0.0092        -0.0003528637  -0.0027802373   6.5085964     -598675.66      3151.9533      68.096749      76.032722      846.95781      4385192.8      72.655254      656941.2     
     18500   301.8081       0.00925        0.00084535225  0.0002417337   6.5762355     -598702.96      3154.2957      67.891692      75.851183      846.99978      4361765.2      72.479314      655382.84    
     18600   300.93628      0.0093         0.00014200065  0.00020381016  6.6546551     -598717.13      3145.1841      67.687065      75.652729      847.04174      4337456.1      72.115121      652121.99    
     18700   301.08123      0.00935       -0.0028650822  -0.00074786739  6.7153811     -598742.81      3146.699       67.48244       75.451592      847.08371      4313060.1      72.083416      651867.59    
     18800   300.72845      0.0094        -0.0032267858  -0.0014340027   6.7741046     -598763.5       3143.012       67.247893      75.249852      847.12567      4286789.7      71.858392      649864.83    
     18900   301.78138      0.00945        0.0043147542   0.0017469023   6.8365366     -598798.76      3154.0165      67.003376      75.023426      847.16763      4258561.6      71.552268      647128.4     
     19000   300.84395      0.0095         0.0027862558   0.0042319253   6.8948764     -598814.96      3144.2191      66.749985      74.799777      847.2096       4230019.2      71.334973      645195.11    
     19100   300.07574      0.00955        0.0017068581   2.6573215e-05  6.9836988     -598831.05      3136.1903      66.49076       74.560635      847.25156      4200328.6      71.112922      643218.61    
     19200   301.048        0.0096        -0.00057477058  0.0024309998   7.0748003     -598865.09      3146.3516      66.235692      74.310051      847.29353      4170359.8      70.801861      640436.77    
     19300   301.23407      0.00965        0.0048170609   0.0014587131   7.1581141     -598890.24      3148.2964      65.957926      74.064414      847.33549      4139348.4      70.60573       638694.31    
     19400   300.58333      0.0097         0.0023013704   0.0013960303   7.2218274     -598906.8       3141.4953      65.689601      73.805107      847.37745      4108279.2      70.282534      635802.19    
     19500   300.54768      0.00975        0.0034585646   0.0010912078   7.2990332     -598929.9       3141.1227      65.385052      73.553666      847.41942      4075502.9      69.994277      633225.87    
     19600   300.17723      0.0098         0.0034277241   0.0030234216   7.3898366     -598946.97      3137.251       65.092232      73.283211      847.46138      4042533        69.674371      630362.95    
     19700   301.71303      0.00985        0.0024989262   0.003445259    7.4527756     -598984.01      3153.3022      64.765204      73.028369      847.50334      4008434.2      69.419186      628085.32    
     19800   300.51602      0.0099         0.0036922012   0.0042237671   7.5319798     -598995.56      3140.7918      64.459583      72.740865      847.54531      3974009.3      69.188772      626031.59    
     19900   301.02786      0.00995        0.0041136209   0.0020809998   7.6122258     -599023.81      3146.1412      64.127105      72.452536      847.58727      3938035.7      68.803174      622573.46    
     20000   301.13486      0.01           0.0059435561   0.0022509433   7.7191371     -599042.04      3147.2595      63.782281      72.160623      847.62924      3901272.2      68.504605      619902.52    
     20100   300.45332      0.01005        0.0035942984   0.0043199341   7.8200436     -599044.02      3140.1365      63.425385      71.872271      847.6712       3864131.6      68.204808      617220.2     
     20200   298.61556      0.0101         0.0059274201   0.0047214783   7.9010485     -599035.14      3120.9294      63.072345      71.562042      847.71316      3826226.1      67.890718      614408.25    
     20300   298.71454      0.01015        0.0067962292   0.0044606065   7.966182      -599034         3121.9639      62.721047      71.249609      847.75513      3788490.6      67.632593      612102.53    
     20400   298.79807      0.0102         0.0056016598   0.0035727487   8.0792335     -599008.32      3122.8369      62.357904      70.953765      847.79709      3751102        67.249627      608666.66    
     20500   296.89008      0.01025        0.0048665886   0.0057806802   8.2156551     -598966.15      3102.8959      62.009875      70.664675      847.83906      3715152.4      66.849831      605078.11    
     20600   296.5146       0.0103         0.0059870697   0.0029836942   8.3012174     -598929.93      3098.9716      61.697948      70.376892      847.88102      3681592.5      66.592357      602777.47    
     20700   294.42744      0.01035        0.0043761379   0.0044000682   8.3969877     -598866.86      3077.158       61.39586       70.102903      847.92298      3649484.3      66.369284      600788       
     20800   292.68628      0.0104         0.0028935466   0.0007100261   8.5303755     -598792.6       3058.9606      61.149469      69.888955      847.96495      3623924.5      66.089142      598281.71    
     20900   292.21924      0.01045       -0.00035804343  0.0009723888   8.6586963     -598720.22      3054.0794      60.944766      69.732089      848.00691      3603864.7      65.923726      596813.79    
     21000   291.57537      0.0105        -0.0017986766   0.00072420789  8.7883206     -598639.19      3047.3501      60.833358      69.632152      848.04888      3592299.1      65.823975      595940.22    
     21100   295.13018      0.01055        0.0043497028  -0.0031011855   8.8650153     -598600.95      3084.5026      60.786647      69.578016      848.09084      3586927.6      65.764696      595433       
     21200   301.05717      0.0106        -0.0068188572   0.0010722238   8.9102185     -598602.48      3146.4475      60.81096       69.600951      848.1328       3589722.6      65.815368      595921.27    
     21300   303.8019       0.01065        0.0033777666  -0.0034805845   8.9272443     -598608.36      3175.1336      60.93201       69.68397       848.17477      3601336.8      65.7939        595756.37    
     21400   304.67114      0.0107        -0.0026746119   0.00090858411  8.9506512     -598662.75      3184.2183      61.08087       69.845531      848.21673      3618684.1      65.936764      597079.53    
     21500   304.98062      0.01075       -0.006457007   -0.0017589368   8.9224878     -598736.8       3187.4528      61.318234      69.99741       848.2587       3640826        66.019977      597862.62    
     21600   302.80086      0.0108         0.0023732254  -0.0010110961   8.9589659     -598782.6       3164.6714      61.54244       70.188429      848.30066      3664291.7      66.175897      599304.25    
     21700   303.11619      0.01085       -0.0033715501  -0.001371059    8.9504007     -598851.06      3167.967       61.795592      70.394977      848.34262      3690374.6      66.363969      601037.2     
     21800   300.63107      0.0109        -0.0026940891  -0.0026590657   8.9621433     -598880.2       3141.9942      62.044775      70.628737      848.38459      3717743.5      66.694284      604058.65    
     21900   298.90841      0.01095       -0.0029677352  -0.0014139691   8.9612393     -598900.12      3123.9901      62.324944      70.841485      848.42655      3745965.8      66.922922      606159.42    
     22000   298.04894      0.011         -0.0011619931  -0.0012268219   8.9305414     -598910.64      3115.0075      62.578825      71.029796      848.46851      3771409.6      67.131132      608075.38    
     22100   298.45936      0.01105        0.0011451623  -2.4708603e-05  8.9446487     -598903.46      3119.2969      62.838317      71.210595      848.51048      3796875.6      67.35948       610173.94    
     22200   299.53755      0.0111        -0.0016573312   4.6812117e-05  8.9279536     -598882.35      3130.5655      63.087672      71.403993      848.55244      3822484.1      67.579693      612199.01    
     22300   300.43244      0.01115       -0.0024224451  -0.0015417571   8.9738059     -598861.3       3139.9183      63.334944      71.576879      848.59441      3846948        67.783375      614074.52    
     22400   301.022        0.0112        -0.0042432929  -0.0017812803   9.001981      -598845.05      3146.0799      63.564266      71.761255      848.63637      3871013.7      68.0212        616259.53    
     22500   301.22381      0.01125       -0.0015759165  -0.00045499432  8.9977168     -598838.02      3148.1892      63.788827      71.915758      848.67833      3893245.5      68.268007      618526.15    
     22600   299.48876      0.0113        -0.00028080406 -0.00099570937  9.0132708     -598818.39      3130.0556      64.014797      72.067171      848.7203       3915456.8      68.417002      619906.73    
     22700   299.34761      0.01135        0.00090762818 -0.00078436471  9.0523621     -598806.31      3128.5804      64.236685      72.219161      848.76226      3937509.6      68.564393      621272.91    
     22800   298.80602      0.0114         0.0010504718   0.00036556326  9.0606603     -598774.05      3122.9201      64.455095      72.365812      848.80423      3959116        68.783021      623284.75    
     22900   299.81204      0.01145        0.0010224148   0.00039070875  9.0710521     -598756.3       3133.4342      64.652406      72.505516      848.84619      3979098.9      68.943378      624768.73    
     23000   299.51745      0.0115         0.0018244381   0.00068956731  9.1004326     -598728.66      3130.3555      64.821893      72.660564      848.88815      3998259.2      69.166209      626819.02    
     23100   299.74592      0.01155        0.00039745286 -0.0020069301   9.1037981     -598707.77      3132.7432      64.965041      72.817902      848.93012      4015964.1      69.454421      629462.06    
     23200   300.47634      0.0116        -0.00054802644  0.0012332246   9.1166167     -598699.84      3140.3771      65.077438      72.995524      848.97208      4032924.4      69.585477      630680.99    
     23300   299.41831      0.01165       -0.0024263812  -0.0010067077   9.1571762     -598682.65      3129.3193      65.17062       73.196405      849.01405      4050013.6      69.687342      631635.46    
     23400   299.27414      0.0117         0.00070136252 -0.00049628786  9.2316423     -598670.81      3127.8125      65.251372      73.372871      849.05601      4065008.9      69.728308      632038       
     23500   300.34536      0.01175       -0.001658433    0.0014069241   9.2424919     -598663.26      3139.0082      65.351259      73.513344      849.09797      4079227.6      69.904842      633669.48    
     23600   301.23185      0.0118        -0.00031852403  0.0011185113   9.2738152     -598655.67      3148.2732      65.434012      73.640825      849.13994      4091678.1      70.119844      635649.83    
     23700   300.54207      0.01185       -0.00092501982  0.0034060506   9.3258338     -598636.95      3141.0641      65.540859      73.746169      849.1819       4104425        70.163058      636073       
     23800   298.82505      0.0119         0.0023429891  -0.004307742    9.3651346     -598599.56      3123.1189      65.640711      73.812197      849.22387      4114561.9      70.324038      637563.9     
     23900   299.2809       0.01195        5.9031032e-05  0.00030641077  9.4177388     -598580.2       3127.8831      65.778862      73.848217      849.26583      4125437.5      70.258562      637001.77    
     24000   298.13466      0.012          0.0004047158  -0.00075918894  9.453338      -598547.17      3115.9034      65.909462      73.854931      849.30779      4134208.4      70.34484       637815.53    
     24100   299.41439      0.01205       -0.002308195    0.00359189     9.4820369     -598537.74      3129.2783      66.055862      73.855969      849.34976      4143654.5      70.484182      639110.51    
     24200   299.32345      0.0121        -0.0012915244  -0.0024053212   9.5012902     -598517.11      3128.3279      66.201078      73.849945      849.39172      4152630.2      70.62693       640436.51    
     24300   300.46953      0.01215        0.0018435177   0.00078140505  9.5303449     -598511.59      3140.3059      66.355454      73.823296      849.43369      4161017.4      70.694457      641080.51    
     24400   299.20697      0.0122         0.0031103927  -0.0019707144   9.5497958     -598489.31      3127.1104      66.513064      73.811883      849.47565      4170462        70.635682      640579.16    
     24500   300.94785      0.01225       -0.00026928944  0.00064867968  9.6057142     -598494.85      3145.305       66.684423      73.754985      849.51761      4178189.8      70.736249      641522.88    
     24600   300.5924       0.0123        -0.0014416127   0.00046550781  9.6320102     -598482.46      3141.5901      66.846409      73.710829      849.55958      4186038.5      70.888694      642937.19    
     24700   300.66195      0.01235       -0.0024623511   0.0011231422   9.6583726     -598475.21      3142.317       66.979863      73.671699      849.60154      4192376        71.083751      644738.14    
     24800   300.1774       0.0124         0.0039574498   0.00079319452  9.7547959     -598470.06      3137.2528      67.105965      73.671701      849.6435       4200476.6      70.867747      642810.7     
     24900   300.05712      0.01245        0.0003385971  -0.0039127439   9.7856199     -598472.84      3135.9957      67.235986      73.665207      849.68547      4208452        71.036531      644373.49    
     25000   299.4165       0.0125         0.001276329   -0.0002721716   9.785423      -598463.54      3129.3004      67.342357      73.652236      849.72743      4214576        71.460448      648250.87    
     25100   300.28782      0.01255       -0.0015687522   0.0022147665   9.8638406     -598467.58      3138.4069      67.433547      73.66313       849.7694       4221115.8      71.069321      644734.61    
     25200   301.08099      0.0126        -0.0011802652   0.0013049057   9.9311035     -598468.96      3146.6965      67.470483      73.712289      849.81136      4226455        71.11961       645222.7     
     25300   300.7453       0.01265       -0.00047193694 -0.0020075121   9.9492936     -598478.14      3143.1881      67.514763      73.743905      849.85332      4231251.6      71.269324      646612.88    
     25400   300.7939       0.0127         0.0013126737  -0.00018487805  10.000323     -598496.26      3143.696       67.528187      73.77197       849.89529      4233912.6      71.26196       646578       
     25500   300.34491      0.01275        0.0013662012   0.0014661819   10.049032     -598502.51      3139.0034      67.542514      73.811851      849.93725      4237309.5      71.171909      645792.82    
     25600   299.66728      0.0128         0.002203006   -0.0040976367   10.0633       -598505.43      3131.9214      67.551753      73.835891      849.97922      4239478.7      71.427132      648140.64    
     25700   300.64626      0.01285       -0.00071209073  0.00020208666  10.112752     -598521.11      3142.1529      67.571757      73.812968      850.02118      4239626.7      71.4064        647984.51    
     25800   299.23726      0.0129        -0.0018731658   0.0030747653   10.185434     -598515.89      3127.427       67.562982      73.838043      850.06314      4240725.7      71.296391      647018.16    
     25900   298.08577      0.01295        0.001276622   -0.00038523437  10.190985     -598523.94      3115.3925      67.559134      73.819731      850.10511      4239641.7      71.513093      649016.78    
     26000   298.6205       0.013         -0.0035286981  -0.0015621349   10.283956     -598520.25      3120.9811      67.540001      73.811479      850.14707      4238176.4      71.27243       646864.58    
     26100   299.49656      0.01305       -0.0012930653   0.00012485597  10.356472     -598501.93      3130.137       67.484026      73.753234      850.18904      4231531.3      71.218343      646405.59    
     26200   299.96056      0.0131         0.0032250125   0.0054989693   10.34959      -598499.58      3134.9865      67.431921      73.73836       850.231        4227619.9      71.587167      649785.26    
     26300   301.15489      0.01315        0.001522993   -0.0033135604   10.484225     -598510.94      3147.4689      67.373         73.707948      850.27296      4222392.3      70.997689      644466.47    
     26400   298.73399      0.0132        -0.0029573389  -0.0016422586   10.53792      -598498.71      3122.1672      67.31148       73.640599      850.31493      4214890.1      71.088577      645323.33    
     26500   300.16512      0.01325       -0.00036437901 -0.001021738    10.573742     -598522.87      3137.1244      67.235103      73.555999      850.35689      4205478.5      71.134493      645772.01    
     26600   300.8686       0.0133         0.0039977093   0.0056113089   10.669766     -598537.37      3144.4767      67.194622      73.499979      850.39886      4199952.6      70.960167      644221.24    
     26700   300.45727      0.01335       -0.0017242017  -0.0030580397   10.734845     -598551.71      3140.1778      67.106433      73.436423      850.44082      4191020.3      70.803808      642833.44    
     26800   300.31796      0.0134         0.0004225577  -0.0029797385   10.786356     -598557.82      3138.7218      67.024248      73.323593      850.48278      4179662.5      70.828104      643085.75    
     26900   300.7118       0.01345        0.0014106806   0.0024422581   10.810235     -598566.87      3142.838       66.928247      73.222621      850.52475      4168134        70.956559      644283.85    
     27000   301.13294      0.0135         0.0010174991   0.0020808433   10.899861     -598587.16      3147.2395      66.845454      73.092126      850.56671      4155763.8      70.662163      641642.4     
     27100   300.21438      0.01355       -0.00093314367  0.00010721535  10.977424     -598594.29      3137.6393      66.747703      72.958253      850.60867      4142290.5      70.471659      639944.11    
     27200   300.14391      0.0136        -0.0007138489  -0.0011414428   11.063057     -598602.15      3136.9027      66.624024      72.791192      850.65064      4125351.1      70.325875      638651.78    
     27300   300.26702      0.01365        0.001641904    0.0030484626   11.116278     -598610.3       3138.1894      66.516839      72.625451      850.6926       4109539        70.220873      637729.67    
     27400   299.54062      0.0137        -0.0024165229  -0.0020802676   11.183148     -598615.65      3130.5976      66.390367      72.486586      850.73457      4094084.4      70.051003      636218.34    
     27500   298.1427       0.01375       -0.0051008654  -0.0090772865   11.278063     -598612.94      3115.9874      66.250808      72.309131      850.77653      4075677.6      69.947519      635309.81    
     27600   300.09004      0.0138         0.0048573082   0.0075416056   11.330701     -598630.61      3136.3397      66.096768      72.129995      850.81849      4056327.8      69.922912      635117.65    
     27700   301.34614      0.01385        0.0033732675   0.0031923095   11.44323      -598644.27      3149.4676      65.956016      71.957028      850.86046      4038182.8      69.728072      633379.13    
     27800   301.02054      0.0139        -0.002198911    0.00076487626  11.530509     -598656.43      3146.0647      65.81908       71.80435       850.90242      4021446.8      69.471819      631082.56    
     27900   302.16697      0.01395        0.0010081099  -0.0013731368   11.620937     -598685.08      3158.0465      65.635086      71.635928      850.94439      4000996.1      69.215777      628787.68    
     28000   301.14882      0.014          0.0035630542   0.0024899876   11.682858     -598692.48      3147.4054      65.446806      71.466265      850.98635      3980266.3      69.112251      627878.17    
     28100   299.88157      0.01405        0.003505961    4.4275478e-05  11.752321     -598694.76      3134.161       65.242767      71.291856      851.02831      3958369.3      68.936117      626308.89    
     28200   298.39687      0.0141         0.0016767463   0.0015717387   11.856139     -598684.87      3118.6439      65.010269      71.124746      851.07028      3935211.8      68.747181      624623.14    
     28300   299.15802      0.01415       -0.00039139439 -0.0002142772   11.949768     -598685.61      3126.5989      64.756435      70.963202      851.11224      3911136.5      68.543193      622800.46    
     28400   301.23865      0.0142         0.00073920976  0.0018786255   12.064421     -598684.98      3148.3442      64.507738      70.771155      851.15421      3885763.4      68.332238      620914.27    
     28500   299.82746      0.01425        0.0014884423   0.0016645578   12.159884     -598656.61      3133.5955      64.293009      70.574069      851.19617      3862233.8      68.15654       619348.3     
     28600   299.69336      0.0143         0.0034452531   0.0026743793   12.256499     -598644.5       3132.1939      64.062257      70.366285      851.23813      3837230.9      67.917903      617210.2     
     28700   299.12036      0.01435        0.001978228    1.8827519e-05  12.355362     -598627.05      3126.2053      63.865982      70.172851      851.2801       3815146.3      67.664041      614933.51    
     28800   300.18902      0.0144        -0.0026724905   0.00078210134  12.446002     -598621.96      3137.3742      63.705048      69.967541      851.32206      3794585.5      67.450146      613019.85    
     28900   299.73073      0.01445        0.00048241626  0.0032703242   12.558112     -598605.54      3132.5845      63.56313       69.762022      851.36403      3775197.1      67.287485      611571.65    
     29000   300.83236      0.0145         0.0013224161   0.00042791186  12.624877     -598605.56      3144.0979      63.427265      69.574778      851.40599      3757201.7      67.128018      610152.34    
     29100   299.15843      0.01455        0.0018407418   0.00078463716  12.732808     -598578.78      3126.6031      63.287999      69.380082      851.44795      3738645.5      66.964986      608700.48    
     29200   299.93005      0.0146         0.0015513639  -0.0010020306   12.828961     -598566.75      3134.6676      63.183033      69.211248      851.48992      3723545.5      66.875858      607920.28    
     29300   300.19212      0.01465        0.0015290242  -0.0020414924   12.904323     -598551.83      3137.4066      63.073184      69.059684      851.53188      3709114.6      66.683067      606197.63    
     29400   299.20008      0.0147        -0.0065328043   0.0006584106   12.91657      -598531.59      3127.0385      62.975525      68.924821      851.57385      3696321.6      66.884063      608054.79    
     29500   298.87189      0.01475       -0.00017600613 -0.0012140553   13.040379     -598503.97      3123.6085      62.908868      68.780937      851.61581      3684882.7      66.444183      604085.54    
     29600   298.84687      0.0148         0.0041242415   0.0013309784   13.09515      -598484.69      3123.3469      62.878196      68.664864      851.65777      3677051.9      66.412769      603829.68    
     29700   298.98625      0.01485        0.00058047969  0.0010603666   13.149272     -598472.45      3124.8037      62.859305      68.61771       851.69974      3673603.7      66.50963       604740.15    
     29800   301.53855      0.0149        -0.0078666906  -0.0016142118   13.232316     -598488.79      3151.4786      62.871756      68.597118      851.7417       3673409.8      66.373511      603532.23    
     29900   300.57105      0.01495        0.0034685994  -0.0034417601   13.300005     -598493.34      3141.367       62.894691      68.55373       851.78366      3672606.4      66.292161      602822.21    
     30000   298.85733      0.015          0.0021903551   0.0029644134   13.320404     -598490.96      3123.4563      62.936553      68.579206      851.82563      3676597.7      66.390638      603747.44    
     30100   300.73455      0.01505        0.0011635906  -0.0010722852   13.306934     -598516.35      3143.0758      62.984861      68.669981      851.86759      3684471.5      66.716047      606736.55    
     30200   300.31443      0.0151        -0.0048310285  -0.00084778816  13.388828     -598525.71      3138.685       63.028266      68.797947      851.90956      3694063.2      66.456754      604408.24    
     30300   300.25867      0.01515        0.0015845409   0.00025905132  13.436042     -598534.15      3138.1022      63.105665      68.89262       851.95152      3703871.7      66.546621      605255.37    
     30400   300.96327      0.0152         0.0031350268   0.0030197569   13.437044     -598550.29      3145.4662      63.210789      69.000206      851.99348      3716018.6      66.68457       606539.92    
     30500   299.69774      0.01525       -0.0043620617  -0.0022366928   13.446949     -598545.53      3132.2397      63.323753      69.12206       852.03545      3729417.3      66.891025      608447.73    
     30600   302.00523      0.0153        -0.002729877   -0.0026587687   13.480337     -598577.1       3156.356       63.45799       69.234109      852.07741      3743565.8      66.90948       608645.58    
     30700   301.60607      0.01535       -0.00074053321  0.00036580046  13.490774     -598586.39      3152.1843      63.588001      69.357115      852.11938      3758085.3      67.011029      609599.35    
     30800   301.12977      0.0154         0.0038698949   0.0019445728   13.538582     -598590.81      3147.2063      63.748957      69.459086      852.16134      3773322.9      67.092983      610374.94    
     30900   299.54509      0.01545        0.0029782029  -0.00040819392  13.551469     -598580.13      3130.6443      63.876347      69.603849      852.2033       3788929.6      67.244098      611779.83    
     31000   300.07495      0.0155        -0.0022181978  -0.0027203143   13.560228     -598595.27      3136.182       63.988207      69.748387      852.24527      3803633.9      67.37685       613017.78    
     31100   299.81089      0.01555       -0.0014467766   0.0021156549   13.575896     -598604.96      3133.4222      64.112963      69.895512      852.28723      3819276.7      67.509925      614258.78    
     31200   299.29879      0.0156         0.00010304332 -0.0011851572   13.575684     -598593.48      3128.0701      64.263071      70.047563      852.3292       3836735.6      67.791558      616851.68    
     31300   299.72384      0.01565       -0.0026113807  -0.0012084483   13.582447     -598588.67      3132.5124      64.380208      70.217944      852.37116      3853268.2      67.875943      617649.92    
     31400   300.34207      0.0157         0.000105133    0.00015818172  13.634034     -598588.31      3138.9738      64.504086      70.368669      852.41312      3869160        67.953162      618383.03    
     31500   301.9954       0.01575        0.00094530302  0.0051696317   13.660324     -598608.05      3156.2532      64.656735      70.51713       852.45509      3886690        68.168019      620368.8     
     31600   299.22515      0.0158         0.004592387   -0.0022737894   13.702779     -598600.44      3127.3005      64.791771      70.67813       852.49705      3903891.9      68.176465      620476.21    
     31700   300.20637      0.01585       -0.0021916535  -0.0028935305   13.717644     -598615.21      3137.5555      64.893982      70.814994      852.53902      3917814.9      68.381812      622375.71    
     31800   299.85901      0.0159        -0.0045897699   0.001905933    13.750029     -598605.34      3133.9252      64.982416      70.930159      852.58098      3929727.5      68.441909      622953.35    
     31900   300.00049      0.01595        0.0014880527   0.0012852794   13.777011     -598589.74      3135.4038      65.107685      71.005965      852.62294      3941704.9      68.532401      623807.7     
     32000   301.17734      0.016          0.0021692929  -0.0028413805   13.813435     -598589.27      3147.7035      65.189779      71.101335      852.66491      3952170.3      68.629324      624720.68    
     32100   300.28537      0.01605       -0.001447828   -0.0016278367   13.84474      -598599.55      3138.3812      65.264         71.171296      852.70687      3960758.2      68.766076      625996.32    
     32200   298.89875      0.0161        -0.00058753723  0.0014641154   13.84749      -598592.43      3123.8892      65.336316      71.220549      852.74883      3968086.2      68.953252      627731.12    
     32300   298.74224      0.01615       -0.00091970691  0.0013517331   13.887617     -598570.3       3122.2535      65.391727      71.21629       852.7908       3971409.4      68.984958      628050.67    
     32400   298.5498       0.0162        -0.0023267239   0.0013493868   13.968848     -598544.81      3120.2422      65.448629      71.192693      852.83276      3973743.7      68.820773      626586.73    
     32500   299.59154      0.01625        0.0018288396  -0.00076965741  13.982782     -598535.1       3131.1298      65.499706      71.158641      852.87473      3975138.3      68.974531      628017.54    
     32600   299.64678      0.0163         0.0012333628  -0.0003816053   13.9974       -598514.4       3131.7071      65.549109      71.09489       852.91669      3974768.1      69.175883      629881.85    
     32700   298.56141      0.01635        0.00017728453  0.00025013312  14.123679     -598484.87      3120.3635      65.559114      71.012332      852.95865      3970953.8      68.822206      626692.28    
     32800   299.90902      0.0164        -2.5785417e-05  0.00012647335  14.16405      -598481.21      3134.4479      65.563266      70.917828      853.00062      3966115.4      68.888141      627323.54    
     32900   299.03338      0.01645       -0.002217263    0.00080016289  14.198012     -598459.03      3125.2962      65.561625      70.814969      853.04258      3960458.7      68.897362      627438.38    
     33000   299.94089      0.0165         0.0012782371  -6.5034672e-05  14.256598     -598455.54      3134.7809      65.563189      70.738012      853.08455      3956443.7      68.82453       626805.94    
     33100   299.03365      0.01655        0.00034329152 -0.0011463702   14.331121     -598436.1       3125.2991      65.553426      70.658424      853.12651      3951598.2      68.668192      625412.89    
     33200   299.22905      0.0166         0.00067811665  0.00057758988  14.387014     -598421.24      3127.3412      65.530178      70.583682      853.16847      3946212.4      68.80997       626734.99    
     33300   300.34952      0.01665       -4.650623e-05  -0.0009693      14.46523      -598415.92      3139.0516      65.518827      70.527485      853.21044      3942581.4      68.743321      626158.74    
     33400   300.07266      0.0167        -0.00088300418 -0.0029268977   14.555436     -598392.98      3136.1581      65.510081      70.44799       853.2524       3937805.5      68.509281      624057.64    
     33500   301.36432      0.01675        0.00074152816  0.002502221    14.590029     -598387.37      3149.6577      65.4828        70.397465      853.29437      3933536.1      68.586534      624792.07    
     33600   300.18046      0.0168         0.00075979953  0.0022489284   14.587282     -598368.67      3137.2847      65.451852      70.400555      853.33633      3932043        68.726636      626099.13    
     33700   299.87457      0.01685       -0.0045227139  -0.0024802131   14.705962     -598372.05      3134.0878      65.419734      70.370166      853.37829      3928610.2      68.496181      624030.38    
     33800   299.67746      0.0169         0.0021799303  -0.00092104244  14.737722     -598383.38      3132.0278      65.361968      70.349541      853.42026      3924183.7      68.592979      624942.98    
     33900   298.48652      0.01695        0.0038036712   0.00033864082  14.789318     -598383.75      3119.5808      65.314198      70.344061      853.46222      3921203.1      68.530579      624405.16    
[...]
    298600   300.37964      0.1493         0.0021424497   0.0018675393  -2.86485       -597618.92      3139.3665      87.303572      46.86579       964.54072      3946467.5      67.508686      695151.15    
    298700   300.97647      0.14935       -0.0035607252   0.00014699137 -2.7918699     -597615.9       3145.6041      87.297796      46.872967      964.58268      3946982.3      67.462136      694702.04    
    298800   300.68185      0.1494         0.0045891125  -0.0034689113  -2.8089798     -597615.54      3142.525       87.336492      46.854533      964.62465      3947350.8      67.433322      694435.53    
    298900   298.83973      0.14945       -0.0025548295   0.0023449954  -2.7106339     -597607.26      3123.2724      87.29701       46.833238      964.66661      3943944.5      67.445156      694587.62    
    299000   298.73547      0.1495        -3.4625577e-05  0.0021282723  -2.5241687     -597601.72      3122.1827      87.319929      46.849021      964.70858      3946481.1      67.337839      693512.58    
    299100   300.66509      0.14955        0.001756027   -0.0033412038  -2.4233905     -597600.33      3142.3498      87.292145      46.846224      964.75054      3945161.5      67.459134      694792.01    
    299200   301.47419      0.1496        -0.0028973263  -0.00043351745 -2.3347496     -597592.51      3150.8059      87.303765      46.835597      964.7925       3944963.2      67.483228      695070.4     
    299300   300.00473      0.14965        0.0039150491   0.0049236517  -2.1603902     -597586.28      3135.4482      87.294289      46.830517      964.83447      3944278.7      67.473466      695000.08    
    299400   299.08925      0.1497        -0.0043004257  -0.0034108443  -2.0628829     -597583.3       3125.8802      87.305185      46.840947      964.87643      3945821.2      67.35597       693820.01    
    299500   299.55741      0.14975        0.0038783685  -0.0011213367  -2.0292407     -597575.14      3130.7731      87.312313      46.840812      964.9184       3946303.6      67.398175      694284.94    
    299600   300.01248      0.1498        -0.0043221461   0.00099249381 -2.0595868     -597554.4       3135.5292      87.310585      46.841485      964.96036      3946453.8      67.33465       693660.73    
    299700   302.20957      0.14985        0.0058279552   0.0045850253  -2.1060533     -597558.79      3158.4917      87.330134      46.861819      965.00232      3949222.7      67.399882      694362.93    
    299800   299.39152      0.1499        -0.0050117995  -0.006392627   -2.2633537     -597545.5       3129.0393      87.297483      46.872301      965.04429      3948801        67.53118       695745.82    
    299900   298.37607      0.14995        0.0033021784   0.0010570674  -2.3701473     -597541.4       3118.4265      87.337321      46.874514      965.08625      3950961.3      67.516211      695621.86    
    300000   300.7567       0.15          -0.0026362644   0.0023264313  -2.3701562     -597546.07      3143.3072      87.314662      46.877583      965.12821      3950366.6      67.331331      693747.2     
    300100   300.68262      0.15005        0.0010852856   0.00059956252 -2.2840604     -597534.63      3142.5329      87.316521      46.880548      965.17018      3950872.4      67.479753      695306.69    
    300200   299.49711      0.1501         0.0013423836  -0.0044555388  -2.2060212     -597528         3130.1428      87.267141      46.860381      965.21214      3947111        67.486596      695407.43    
    300300   299.99889      0.15015       -0.0018664156   0.0022865978  -2.1278723     -597533.37      3135.3871      87.26862       46.858905      965.25411      3947225.2      67.38643       694405.48    
    300400   299.83991      0.1502         0.0015247564   0.0014693513  -2.1151783     -597528.23      3133.7256      87.248002      46.862696      965.29607      3946783.4      67.376283      694331.1     
    300500   299.22413      0.15025       -0.0029255836  -0.0018150757  -2.0940137     -597514.95      3127.2898      87.224864      46.880221      965.33803      3947384        67.354763      694139.5     
    300600   300.27193      0.1503         0.0053469135  -0.0012900053  -2.0826637     -597509.96      3138.2408      87.20561       46.882219      965.38         3946852.4      67.342008      694038.23    
    300700   301.14959      0.15035       -0.0059803428   0.0014163508  -2.0096985     -597508.98      3147.4134      87.198399      46.891466      965.42196      3947476        67.473062      695419.12    
    300800   300.21543      0.1504         0.0043375544   0.0030076051  -2.0578115     -597503.8       3137.6502      87.179473      46.920447      965.46393      3949230        67.489948      695623.39    
    300900   299.51089      0.15045       -0.0039645268  -0.0037537031  -1.9916508     -597498.16      3130.2868      87.165667      46.943018      965.50589      3950675.8      67.44982       695240       
    301000   299.55669      0.1505         0.006589099   -0.0015683994  -1.8557869     -597483.17      3130.7655      87.160973      46.971111      965.54785      3952999        67.390027      694653.88    
    301100   301.09566      0.15055       -0.0065935526   0.002397376   -1.8398656     -597475.95      3146.8498      87.127893      46.991489      965.58982      3953384.8      67.438248      695181.15    
    301200   301.35858      0.1506         0.002437239    0.0013955449  -1.8418938     -597473.86      3149.5977      87.144954      47.032205      965.63178      3957757.1      67.413819      694959.53    
    301300   299.8582       0.15065       -0.0007104096  -0.0014163165  -1.9432214     -597476.88      3133.9167      87.125698      47.077304      965.67375      3960848.9      67.442608      695286.52    
    301400   298.99266      0.1507         0.00044313731 -0.0019876629  -1.9532861     -597477.4       3124.8706      87.138442      47.105946      965.71571      3964010.7      67.508743      695998.58    
    301500   299.24386      0.15075        0.0014780464   0.0017926427  -1.9311389     -597468.69      3127.4961      87.095649      47.114765      965.75767      3962978        67.508499      696026.3     
    301600   300.772        0.1508        -0.0027967728   0.0014823267  -1.9864011     -597442.18      3143.4672      87.093125      47.140225      965.79964      3965176.9      67.243393      693323.13    
    301700   300.56436      0.15085        0.002773341    0.00011144375 -1.9707826     -597451.11      3141.297       87.062511      47.156357      965.8416       3965311.8      67.297738      693913.61    
    301800   299.49812      0.1509        -0.0035470594  -0.0034978723  -1.9617104     -597453.33      3130.1534      87.028491      47.184559      965.88357      3966305.2      67.41235       695125.6     
    301900   299.21487      0.15095        0.0052600453   0.0016548528  -1.9733695     -597453.1       3127.1931      87.013035      47.189547      965.92553      3966192.3      67.385838      694882.4     
    302000   301.00319      0.151         -0.0062158123   0.0019132617  -1.9486508     -597459.08      3145.8834      86.981576      47.214174      965.96749      3966999.9      67.375251      694803.41    
    302100   299.95151      0.15105        0.0044774528   0.00027402139 -1.8327763     -597445.6       3134.892       86.946253      47.230925      966.00946      3966968        67.314863      694210.83    
    302200   300.46744      0.1511        -0.0009571842  -0.0017776515  -1.7769502     -597452.25      3140.284       86.899314      47.23821       966.05142      3965610.2      67.513983      696294.58    
    302300   299.26685      0.15115        0.00046391394 -0.00011805614 -1.7063713     -597445.1       3127.7363      86.860366      47.251389      966.09338      3965110.9      67.453956      695705.72    
    302400   299.35047      0.1512        -0.000743886    0.00067976858 -1.5828674     -597442.49      3128.6103      86.816662      47.258044      966.13535      3963846.2      67.388953      695065.48    
    302500   300.01091      0.15125       -0.00079269102  0.0025516602  -1.5068031     -597436.39      3135.5127      86.798677      47.263571      966.17731      3963660.7      67.38229       695026.95    
    302600   300.98706      0.1513         0.00081677638 -0.00011954848 -1.5850701     -597431.94      3145.7148      86.752426      47.281944      966.21928      3963260.8      67.405025      695291.65    
    302700   300.68417      0.15135       -0.0010744879  -0.0042283044  -1.6394679     -597432.54      3142.5492      86.726415      47.298271      966.26124      3963612.8      67.423699      695514.48    
    302800   299.35151      0.1514         0.0023751039   4.6894977e-05 -1.6467833     -597430.97      3128.6211      86.693279      47.302024      966.3032       3962584.8      67.489194      696220.33    
    302900   298.94667      0.15145       -0.0017495668   0.0011786706  -1.7052027     -597427.99      3124.39        86.66072       47.321313      966.34517      3962884        67.271772      694007.54    
    303000   299.96128      0.1515         0.0014094257   0.0013823115  -1.6453513     -597421.5       3134.994       86.621983      47.33021       966.38713      3962029.4      67.316548      694499.63    
    303100   301.56102      0.15155       -0.0041835363   0.002378752   -1.5676514     -597413.61      3151.7135      86.566785      47.372617      966.4291       3963224.4      67.360321      694981.4     
    303200   300.87248      0.1516         0.0041012018  -0.0018740224  -1.5593683     -597421.61      3144.5173      86.528614      47.405427      966.47106      3964392.7      67.334001      694740.02    
    303300   299.06286      0.15165       -0.00055782256 -0.0034910826  -1.5311061     -597421.73      3125.6043      86.460425      47.430519      966.51302      3963537.3      67.337339      694804.63    
    303400   298.23683      0.1517         0.00017222704  0.0001736566  -1.5163147     -597411.4       3116.9713      86.417337      47.464699      966.55499      3964589        67.366397      695134.63    
    303500   300.48429      0.15175        0.00024342469  0.0022743681  -1.4582491     -597404.38      3140.4602      86.366048      47.494053      966.59695      3964858.6      67.295228      694430.41    
    303600   301.59424      0.1518        -0.0042497983   0.0029690756  -1.3830204     -597386.01      3152.0607      86.321769      47.551266      966.63892      3967771.8      67.231671      693804.68    
    303700   301.49006      0.15185        0.0045889672  -0.00017446317 -1.3341371     -597382.22      3150.9718      86.260241      47.599217      966.68088      3969114.3      67.281678      694350.87    
    303800   298.91954      0.1519        -0.0030535779  -0.0028102472  -1.3133405     -597389.62      3124.1064      86.209057      47.646873      966.72284      3970903        67.345204      695036.64    
    303900   298.4488       0.15195        0.0031987775  -0.0013325645  -1.2943547     -597396.73      3119.1866      86.181146      47.681939      966.76481      3972711.3      67.292291      694520.69    
    304000   299.61201      0.152         -0.00063088246 -0.0022018788  -1.2836594     -597381.78      3131.3437      86.138272      47.707474      966.80677      3973033.8      67.366571      695317.52    
    304100   301.15123      0.15205       -0.001300198    0.00098366459 -1.3641447     -597379.19      3147.4306      86.115057      47.735052      966.84874      3974431.6      67.327697      694946.45    
    304200   300.86455      0.1521         0.002058247    0.0024189266  -1.352013      -597373.8       3144.4344      86.060952      47.769213      966.8907       3974949.5      67.371901      695432.9     
    304300   299.6971       0.15215       -0.0025636626   0.00086634975 -1.3524515     -597362.72      3132.233       86.010208      47.798114      966.93266      3975181.7      67.203194      693721.57    
    304400   298.16767      0.1522         0.0021770361   0.0014486217  -1.3706593     -597358.61      3116.2484      85.972215      47.827898      966.97463      3976074.3      67.189034      693605.49    
    304500   299.17696      0.15225       -0.0023607358  -0.0015364667  -1.401772      -597352.55      3126.7969      85.895981      47.875909      967.01659      3976708.9      67.280454      694579.38    
    304600   301.43372      0.1523         0.00071553951 -0.0025509753  -1.3542503     -597334.77      3150.383       85.857643      47.912095      967.05856      3978111        67.195318      693730.57    
    304700   301.62806      0.15235        0.0028976113   0.00067107488 -1.3185501     -597322.12      3152.4141      85.791146      47.962441      967.10052      3979379.5      67.233739      694157.35    
    304800   300.41423      0.1524        -0.0039684001  -0.0010680836  -1.2983548     -597319.27      3139.7279      85.765072      48.004534      967.14248      3981834.3      67.278623      694650.91    
    304900   298.69333      0.15245        0.0043634167   0.0039244423  -1.2127882     -597329.66      3121.7423      85.744878      48.046247      967.18445      3984528.7      67.240295      694285.29    
    305000   298.27464      0.1525        -0.0033350059   0.00052745779 -1.1145994     -597323.37      3117.3664      85.666875      48.098466      967.22641      3985403.5      67.212668      694030.14    
    305100   300.48837      0.15255       -0.0010974147  -0.0010150479  -1.1356635     -597319.63      3140.5028      85.640062      48.157685      967.26837      3989234.5      67.269639      694648.56    
    305200   301.1525       0.1526         0.0034318204   0.00045911723 -1.2350158     -597296.78      3147.4439      85.588462      48.211472      967.31034      3991456.9      67.212457      694088.19    
    305300   300.55231      0.15265       -0.0030897805  -0.0031694191  -1.260225      -597299.86      3141.171       85.549969      48.258762      967.3523       3993748.4      67.25689       694577.17    
    305400   297.64635      0.1527         0.0023340368  -6.6154228e-05 -1.2819936     -597284.09      3110.8         85.526257      48.320616      967.39427      3997932.3      67.357334      695644.65    
    305500   299.38601      0.15275        0.001415531   -0.0006507725  -1.2980186     -597281.51      3128.9817      85.473373      48.373269      967.43623      3999987.5      67.333477      695428.43    
    305600   301.3621       0.1528        -0.0044237737   0.00010298502 -1.2746128     -597275.96      3149.6345      85.424249      48.443397      967.47819      4003657.8      67.252818      694625.5     
    305700   301.96841      0.15285        0.0035329801   0.0019573108  -1.2581221     -597251.17      3155.9712      85.364919      48.513456      967.52016      4006836.9      67.27631       694898.28    
    305800   300.87529      0.1529        -0.0013863201  -0.000906089   -1.3346313     -597259.46      3144.5466      85.313131      48.592535      967.56212      4011107.4      67.187754      694013.69    
    305900   297.66243      0.15295       -0.0014220246   0.0025529955  -1.4003755     -597249.54      3110.968       85.279648      48.683777      967.60409      4017236.1      67.111569      693256.8     
    306000   297.50018      0.153          0.0050081456   0.0015663655  -1.2763684     -597244         3109.2723      85.205702      48.76741       967.64605      4020822.3      67.065796      692814.01    
    306100   300.34345      0.15305       -0.0050232824  -0.0050007273  -1.1933077     -597227.29      3138.9882      85.152357      48.862597      967.68801      4026322.7      67.171662      693937.75    
    306200   302.33301      0.1531         0.0028008959   6.0067224e-05 -1.2179009     -597216.32      3159.7818      85.100021      48.948286      967.72998      4031079.4      67.198096      694240.94    
    306300   300.76506      0.15315        0.0010438087  -0.00023632225 -1.2398507     -597209.66      3143.3946      85.020064      49.034506      967.77194      4034560.8      67.209262      694386.41    
    306400   298.97984      0.1532        -0.0052996561  -0.0022706497  -1.2110837     -597198.03      3124.7366      84.954173      49.114439      967.81391      4038180.8      67.268685      695030.48    
    306500   299.0915       0.15325        0.0059182958   0.0024613425  -1.204966      -597191.31      3125.9037      84.894301      49.18904       967.85587      4041639.5      67.303254      695417.81    
    306600   299.35648      0.1533        -0.0017322372  -0.00054089703 -1.1210771     -597176.48      3128.6731      84.803024      49.276667      967.89783      4044661.5      67.328097      695704.67    
    306700   301.54806      0.15335       -0.0013995302  -2.8168157e-05 -1.0525187     -597163.12      3151.578       84.739914      49.350795      967.9398       4047907        67.344073      695899.91    
    306800   301.11207      0.1534         0.0022497415   0.0036517979  -0.99609713    -597152.25      3147.0213      84.67524       49.427357      967.98176      4051268.2      67.236462      694818.04    
    306900   299.78394      0.15345       -0.0033974017   0.0022562009  -0.93657352    -597143.02      3133.1406      84.602958      49.502386      968.02373      4054130.1      67.29024       695403.92    
    307000   298.1471       0.1535         0.00023965353 -0.0037217062  -0.86744819    -597155.21      3116.0335      84.561798      49.582051      968.06569      4058854.9      67.234982      694862.98    
    307100   298.98825      0.15355        0.0024165449  -0.00093841901 -0.97828579    -597153         3124.8246      84.518663      49.665455      968.10765      4063784.7      67.349204      696073.63    
    307200   300.37314      0.1536        -0.0013449388   0.00073276516 -1.0473044     -597136.87      3139.2985      84.464502      49.737274      968.14962      4067229.5      67.315362      695754.01    
    307300   302.0829       0.15365       -0.0018658813  -0.00017749078 -1.1332167     -597128.64      3157.1678      84.430773      49.811887      968.19158      4071880.9      67.334252      695979.43    
    307400   299.94983      0.1537         0.0050293356  -0.00021765669 -1.2292032     -597122.23      3134.8743      84.369535      49.862719      968.23354      4073256.3      67.313328      695793.31    
    307500   297.54871      0.15375       -0.0020269859  -0.0017178711  -1.1798029     -597111.99      3109.7795      84.308662      49.909658      968.27551      4074325.7      67.359824      696304.1     
    307600   299.57197      0.1538         0.00033830389 -0.00033950915 -1.1058657     -597108.41      3130.9252      84.271489      49.957704      968.31747      4076626.4      67.343242      696162.85    
    307700   301.66311      0.15385        0.00098402554 -0.00025030166 -1.0995678     -597095.52      3152.7804      84.213673      49.992579      968.35944      4076850.1      67.302108      695767.78    
    307800   301.29916      0.1539        -0.00080349463 -6.9983929e-06 -1.1755013     -597058.79      3148.9766      84.156507      50.047682      968.4014       4078749.9      67.264105      695405.04    
    307900   298.87436      0.15395       -0.0001901596   0.001449862   -1.1347402     -597063.42      3123.6342      84.134941      50.084702      968.44336      4080897.8      67.315229      695963.75    
    308000   298.271        0.154          0.0006556668   0.0014635198  -1.097159      -597063.73      3117.3283      84.09812       50.129222      968.48533      4082914.6      67.303866      695876.42    
    308100   299.31916      0.15405       -0.0037486676  -0.00040825949 -1.0995751     -597052.86      3128.283       84.066477      50.177789      968.52729      4085509.6      67.336512      696244.12    
    308200   301.94211      0.1541         0.0036078