LAMMPS (4 May 2022)
  using 1 OpenMP thread(s) per MPI task
#uniaxial tensile test of CNT_25_14_2.679

##---------------INITIALIZATION-------------------------------

units          metal
dimension 	    3
boundary       p p p
atom_style 	atomic
newton 		on


##---------------ATOM DEFINITION------------------------------

read_data 	CNT_25_14_2.679.dat
Reading data file ...
  orthogonal box = (-50 -50 -0.145035) to (50 50 436.569)
  4 by 4 by 20 MPI processor grid
  reading atoms ...
  14052 atoms
  read_data CPU = 0.066 seconds



##---------------FORCE FIELDS---------------------------------
#Set the formula(s) LAMMPS uses to compute pairwise interactions. In LAMMPS, pair potentials are defined between pairs #of atoms that are within a cutoff distance and the set of active interactions typically changes over time

pair_style 	airebo 3.0

#Specify the pairwise force field coefficients for one or more pairs of atom types. The number and meaning of the coefficients depends on the pair style.

pair_coeff     * * /ascldap/users/bcma/CH.airebo C
Reading airebo potential file /ascldap/users/bcma/CH.airebo with DATE: 2011-10-25


##---------------SETTINGS-------------------------------------

timestep 	0.0005
variable   ts equal 0.0005


##---------------COMPUTES-----stresses in 3 directions and min/max on x and z atom coordinates --------------------------

compute    1 all stress/atom NULL
compute    2 all reduce sum c_1[1] c_1[2] c_1[3]
compute    3 all property/atom x y # true atoms position
compute    4 all reduce min c_3[1] c_3[2]
compute    5 all reduce max c_3[1] c_3[2]


variable   Lx equal lx
variable   Ly equal ly
variable   Lz equal lz
variable   Vol equal vol
variable   thickn equal 3.4
#making the damp parameter timestep dependent
fix		1 all npt temp 300 300 0.05 iso 0 0 0.05 #$(100.0*dt)x 0 0 0.5 y 0 0 0.5 z 0 0 0.5
thermo 	2000
##---------------RELAXATION--------------------------------------

run            50000
Neighbor list info ...
  update every 1 steps, delay 10 steps, check yes
  max neighbors/atom: 2000, page size: 100000
  master list distance cutoff = 12.2
  ghost atom cutoff = 12.2
  binsize = 6.1, bins = 17 17 72
  1 neighbor lists, perpetual/occasional/extra = 1 0 0
  (1) pair airebo, perpetual
      attributes: full, newton on, ghost
      pair build: full/bin/ghost
      stencil: full/ghost/bin/3d
      bin: standard
Per MPI rank memory allocation (min/avg/max) = 3.755 | 3.793 | 3.902 Mbytes
   Step          Temp          E_pair         E_mol          TotEng         Press          Volume    
         0   0             -104058.65      0             -104058.65     -3286.1745      4367140.4    
      2000   0.75000927    -104257.83      0             -104256.46     -1.3494569      4199656.3    
      4000   56.506689     -103792.41      0             -103689.78     -57.986837      3907109.7    
      6000   418.82511     -103819.91      0             -103059.23      10.548684      4311674.7    
      8000   282.13205     -103800.7       0             -103288.28      19.122871      4260161.8    
     10000   285.83286     -103761.79      0             -103242.65      3.7830789      4166934.9    
     12000   303.62313     -103729.71      0             -103178.26      4.7492804      4221276.6    
     14000   278.83482     -103748.41      0             -103241.98      1.7954735      4150071.9    
     16000   297.92976     -103714.05      0             -103172.94     -30.777007      4224312.1    
     18000   305.97585     -103730.55      0             -103174.83     -60.702234      4158874.4    
     20000   312.60181     -103705.96      0             -103138.2      -48.933897      4219069.7    
     22000   305.91189     -103719.78      0             -103164.18     -21.26534       4166497.8    
     24000   305.79633     -103721.1       0             -103165.7      -8.472155       4207678.5    
     26000   301.26088     -103726.11      0             -103178.95      28.72709       4169031.9    
     28000   297.37715     -103732.26      0             -103192.16      8.1148346      4182726.5    
     30000   296.35127     -103738.97      0             -103200.73      17.932671      4191470.9    
     32000   298.64222     -103733.45      0             -103191.05      55.180143      4171700.6    
     34000   309.35848     -103730         0             -103168.13      24.887957      4196057.6    
     36000   307.01614     -103726.65      0             -103169.04      64.521174      4166313.9    
     38000   298.22577     -103725.03      0             -103183.39      46.418047      4190043.9    
     40000   302.00426     -103732.82      0             -103184.31      31.118228      4172004.6    
     42000   298.67016     -103731.63      0             -103189.17      24.240428      4178726.4    
     44000   296.38514     -103729.36      0             -103191.06     -14.447204      4187162.6    
     46000   300.22784     -103739.82      0             -103194.54     -16.213427      4171696.5    
     48000   301.90325     -103728.99      0             -103180.66     -48.36796       4192495.9    
     50000   300.40487     -103727.72      0             -103182.12     -21.611049      4175692.8    
Loop time of 151.558 on 320 procs for 50000 steps with 14052 atoms

Performance: 14.252 ns/day, 1.684 hours/ns, 329.908 timesteps/s
99.8% CPU use with 320 MPI tasks x 1 OpenMP threads

MPI task timing breakdown:
Section |  min time  |  avg time  |  max time  |%varavg| %total
---------------------------------------------------------------
Pair    | 0.033852   | 31.841     | 127.73     | 962.8 | 21.01
Neigh   | 0.00061292 | 0.26069    | 0.97924    |  75.1 |  0.17
Comm    | 0.087551   | 4.8825     | 17.456     | 205.7 |  3.22
Output  | 0.0037738  | 0.0038897  | 0.0056146  |   0.2 |  0.00
Modify  | 8.0467     | 113.05     | 149.92     | 553.5 | 74.59
Other   |            | 1.516      |            |       |  1.00

Nlocal:        43.9125 ave         179 max           0 min
Histogram: 240 0 0 0 0 0 0 0 0 80
Nghost:        318.781 ave         970 max           0 min
Histogram: 80 160 0 0 0 0 0 0 0 80
Neighs:              0 ave           0 max           0 min
Histogram: 320 0 0 0 0 0 0 0 0 0
FullNghs:      8312.24 ave       33928 max           0 min
Histogram: 240 0 0 0 0 0 0 0 0 80

Total # of neighbors = 2659918
Ave neighs/atom = 189.29106
Neighbor list builds = 355
Dangerous builds = 2


##---------------DEFORMATION--------------------------------------
unfix              1
reset_timestep     0
fix		1 all npt temp 300 300 0.05 x 0 0 0.05 y 0 0 0.05 #$(100.0*dt)
fix        2 all ave/time 1 100 100 c_2[1] c_2[2] c_2[3]
fix        3 all ave/time 1 100 100 v_Lx v_Ly v_Lz v_Vol
fix        4 all  ave/time 1 100 100 c_4[1] c_4[2]
fix        5 all ave/time 1 100 100 c_5[1] c_5[2]
variable   srate equal 1.0e9
variable   srate1 equal "v_srate / 1.0e12"
fix		6 all deform 1 z erate ${srate1} units box remap x
fix		6 all deform 1 z erate 0.001 units box remap x
run            100
Per MPI rank memory allocation (min/avg/max) = 3.756 | 3.795 | 3.919 Mbytes
   Step          Temp          E_pair         E_mol          TotEng         Press          Volume    
         0   300.40487     -103727.72      0             -103182.12     -21.611049      4175692.8    
       100   301.76616     -103732.39      0             -103184.31      62.792942      4172646.9    
Loop time of 0.387145 on 320 procs for 100 steps with 14052 atoms

Performance: 11.159 ns/day, 2.151 hours/ns, 258.301 timesteps/s
99.7% CPU use with 320 MPI tasks x 1 OpenMP threads

MPI task timing breakdown:
Section |  min time  |  avg time  |  max time  |%varavg| %total
---------------------------------------------------------------
Pair    | 8.0851e-05 | 0.076253   | 0.30695    |  47.1 | 19.70
Neigh   | 0          | 0          | 0          |   0.0 |  0.00
Comm    | 0.00012706 | 0.0092792  | 0.033158   |   9.0 |  2.40
Output  | 0.00017093 | 0.00017821 | 0.0001944  |   0.0 |  0.05
Modify  | 0.056277   | 0.29872    | 0.38418    |  25.2 | 77.16
Other   |            | 0.002716   |            |       |  0.70

Nlocal:        43.9125 ave         179 max           0 min
Histogram: 240 0 0 0 0 0 0 0 0 80
Nghost:         319.65 ave         980 max           0 min
Histogram: 80 160 0 0 0 0 0 0 0 80
Neighs:              0 ave           0 max           0 min
Histogram: 320 0 0 0 0 0 0 0 0 0
FullNghs:      8304.71 ave       33930 max           0 min
Histogram: 240 0 0 0 0 0 0 0 0 80

Total # of neighbors = 2657506
Ave neighs/atom = 189.11941
Neighbor list builds = 0
Dangerous builds = 0
##---------------THERMO-OUTPUTS--------------------------------------
variable cntdiameter equal ((f_5[1]-f_4[1])+(f_5[2]-f_4[2]))/2
#actual volume of cnt
variable   CorVol equal 3.14*v_cntdiameter*v_thickn*f_3[3]
#convertion factor of stress from barr to GPA
variable   ConvoFac equal 1/1.0e4
variable   sigmaxx equal f_2[1]*v_ConvoFac/v_CorVol
variable   sigmayy equal f_2[2]*v_ConvoFac/v_CorVol
variable   sigmazz equal f_2[3]*v_ConvoFac/v_CorVol
variable   StrainPerTs equal v_srate1*v_ts
variable   strain equal v_StrainPerTs*step
thermo 	100
thermo_style custom step temp v_strain v_sigmaxx v_sigmayy v_sigmazz pe ke lx ly lz vol v_cntdiameter v_CorVol
thermo_modify lost warn


##---------------DEFORMATION--------------------------------------
dump           1 all atom 5000 /ascldap/users/bcma/CNT_25_14_2.679/CNT_25_14_2.679.lammpstrj
run            1000000
Per MPI rank memory allocation (min/avg/max) = 4.756 | 4.795 | 4.919 Mbytes
   Step          Temp         v_strain      v_sigmaxx      v_sigmayy      v_sigmazz        PotEng         KinEng           Lx             Ly             Lz           Volume     v_cntdiameter     v_CorVol   
       100   301.76616      5e-05         -0.0050524866  -0.006876204   -0.43711133    -103732.39      548.07805      98.417822      98.539092      430.25837      4172646.9      27.49311       126284.72    
       200   297.7258       0.0001         0.0055387272   0.0036682636  -0.34626239    -103731.57      540.73981      98.362947      98.692039      430.27988      4177002.1      27.458954      126134.14    
       300   296.30175      0.00015       -0.00098150814  0.0075348358  -0.33418129    -103734.38      538.1534       98.360156      98.841327      430.3014       4183411        27.505603      126354.74    
       400   298.09105      0.0002        -0.01233257    -0.006384713   -0.28751332    -103734.89      541.40319      98.319679      99.007441      430.32291      4188926.6      27.406494      125905.75    
       500   301.42803      0.00025        0.0056180387   0.0027575276  -0.2275963     -103730.71      547.46392      98.268648      99.006858      430.34442      4186937.1      27.481498      126256.63    
       600   303.07371      0.0003         0.0089085533   8.5242913e-05 -0.19703332    -103731.9       550.45286      98.298081      99.196756      430.36594      4196434        27.540362      126533.39    
       700   299.53669      0.00035       -0.0043595103  -0.0018091938  -0.12682251    -103730.21      544.0288       98.262948      99.347243      430.38745      4201508.1      27.470151      126217.11    
       800   301.26304      0.0004        -0.0035015369  -0.003657635   -0.1088135     -103740.34      547.16426      98.268404      99.367126      430.40896      4202792.4      27.501397      126367       
       900   299.4809       0.00045        0.0068571613   0.011145093    0.00050531461 -103738.47      543.92748      98.206116      99.44936       430.43047      4203814.5      27.416432      125982.88    
      1000   297.06806      0.0005         0.00010476178 -0.0036475687   0.04666664    -103730.44      539.54519      98.292047      99.597082      430.45199      4213953.2      27.411889      125968.3     
      1100   300.14659      0.00055       -0.0048859356  -0.0083929123   0.084636286   -103731.9       545.13653      98.187228      99.670952      430.4735       4212792.1      27.420491      126014.13    
      1200   299.25439      0.0006         0.0027098367   0.0052091814   0.12020901    -103728.01      543.51608      98.15069       99.74183       430.49501      4214429.7      27.387062      125866.79    
      1300   299.29852      0.00065       -0.00048941988  0.0068489577   0.15814781    -103725.33      543.59623      98.168892      99.837109      430.51653      4219448.7      27.382111      125850.33    
      1400   302.29194      0.0007        -0.0013950648  -0.0079201616   0.22194397    -103722.94      549.03299      98.210685      99.950818      430.53804      4226264        27.383735      125864.08    
      1500   304.05284      0.00075       -0.00069476225 -0.0020572364   0.23368308    -103724.76      552.2312       98.212062      99.985807      430.55955      4228014        27.347622      125704.38    
      1600   303.52682      0.0008         0.0049722053   0.0014197472   0.31102017    -103734.18      551.27583      98.221354      100.01697      430.58106      4229943.2      27.406011      125979.06    
      1700   300.22473      0.00085       -0.0014742304   0.0010763453   0.3599143     -103732.32      545.27846      98.276402      100.14596      430.60258      4237983.9      27.329266      125632.56    
      1800   299.58071      0.0009        -0.0080595694  -0.0040709325   0.40422148    -103732.98      544.10877      98.258926      100.15001      430.62409      4237613.6      27.378237      125863.97    
      1900   298.97741      0.00095        0.010866558    0.007082238    0.45669591    -103731.63      543.01302      98.334616      100.18363      430.6456       4242513.4      27.308853      125551.27    
      2000   299.05281      0.001         -0.00070735568  0.0010190658   0.47934334    -103729.84      543.14997      98.389181      100.28507      430.66712      4249377.8      27.370163      125839.42    
      2100   298.74978      0.00105       -0.0064842117  -0.0048995685   0.53495327    -103723.17      542.5996       98.450147      100.28101      430.68863      4252051        27.366175      125827.37    
      2200   299.71335      0.0011         0.0024434556   0.00020305181  0.57247011    -103723.21      544.34967      98.477599      100.26689      430.71014      4252850.5      27.320581      125624.01    
      2300   299.23227      0.00115        0.0033917712   0.0010986865   0.68550669    -103728.03      543.47591      98.548354      100.31559      430.73165      4258185.5      27.322427      125638.77    
      2400   298.31767      0.0012        -0.0026655166  -0.0023286436   0.68812152    -103734.02      541.81478      98.615931      100.37136      430.75317      4263687.7      27.255691      125338.15    
      2500   298.80542      0.00125        0.00058286504 -0.0012879267   0.71924545    -103734.72      542.70065      98.677171      100.34212      430.77468      4265305.5      27.233103      125240.53    
      2600   300.46282      0.0013         0.001715313    0.0052931584   0.7786449     -103733.21      545.71088      98.767681      100.36507      430.79619      4270407.5      27.329989      125692.37    
      2700   301.48578      0.00135       -0.0016253935   0.0043155382   0.82524424    -103731.24      547.56882      98.888594      100.36231      430.81771      4275731.4      27.333763      125716.01    
      2800   300.7844       0.0014        -0.0058646764  -0.011729299    0.84192929    -103730.34      546.29495      99.007306      100.32648      430.83922      4279549.3      27.338919      125746       
      2900   299.67178      0.00145        0.008373508    0.0020158197   0.9426314     -103729.42      544.27416      99.007383      100.29395      430.86073      4278378.6      27.394946      126009.99    
      3000   300.43501      0.0015         0.00052662371  0.0077789819   0.96161633    -103733.58      545.66036      99.135708      100.32725      430.88225      4285560.4      27.401555      126046.68    
      3100   299.33908      0.00155       -0.0066696621  -0.0059060663   1.0017542     -103735.14      543.6699       99.204686      100.30575      430.90376      4287837.2      27.423053      126151.87    
      3200   299.60806      0.0016         0.00069425529  8.1185774e-05  1.0908636     -103737         544.15844      99.295028      100.23077      430.92527      4288748        27.472635      126386.27    
      3300   298.35974      0.00165        0.010244869    0.0026240266   1.1072294     -103726.95      541.8912       99.427026      100.20987      430.94678      4293768.4      27.491508      126479.41    
      3400   300.85753      0.0017        -0.0014265099  -0.0023034024   1.1781912     -103725.33      546.42777      99.546969      100.23635      430.9683       4300298.5      27.49828       126516.88    
      3500   300.66611      0.00175       -0.0083251739  -0.0061968993   1.1888379     -103726.23      546.0801       99.584213      100.21722      430.98981      4301301.2      27.451523      126308.06    
      3600   298.7592       0.0018         0.0028908263   0.0113931      1.2487226     -103729.7       542.61671      99.656618      100.20558      431.01132      4304143.2      27.38027       125986.51    
      3700   297.03957      0.00185        0.00101312    -0.0018642806   1.2971943     -103730.82      539.49346      99.868676      100.16769      431.03284      4311886.2      27.319266      125712.08    
      3800   298.21208      0.0019        -0.0043953315  -0.0023237802   1.3388975     -103731.38      541.62301      99.921511      100.14918      431.05435      4313585.6      27.413133      126150.31    
      3900   301.77075      0.00195        0.003714696   -0.0032848763   1.4015283     -103734.71      548.08638      100.05449      100.06164      431.07586      4315766        27.552869      126799.68    
      4000   298.80239      0.002          0.0091853162   0.0040262722   1.4023408     -103728.02      542.69515      100.13474      100.1262       431.09737      4322230        27.460215      126379.59    
      4100   301.74872      0.00205       -0.0054726458  -0.0029235818   1.4863835     -103732.22      548.04637      100.24293      100.12647      431.11889      4327127.5      27.613989      127093.64    
      4200   299.53355      0.0021        -0.0083608454   0.001327805    1.5221028     -103727.53      544.0231       100.2598       100.09953      431.1404       4326907        27.448328      126337.49    
      4300   298.60592      0.00215        0.0041808226   0.0095442994   1.5654484     -103726.92      542.3383       100.36197      100.09037      431.16191      4331136.6      27.483381      126505.14    
      4400   300.15581      0.0022        -0.0035820502   0.0014760163   1.5846629     -103733.8       545.15327      100.4859       100.11311      431.18343      4337686.5      27.555457      126843.23    
      4500   298.06122      0.00225        0.0019554524  -0.011718699    1.6491642     -103731.94      541.34901      100.44338      100.11837      431.20494      4336294.9      27.532631      126744.48    
      4600   299.97199      0.0023         0.0046154358   0.0023566515   1.6979871     -103729.06      544.81941      100.51921      100.13138      431.22645      4340349        27.458383      126409       
      4700   303.19197      0.00235        0.0045157511   0.00094176178  1.7550617     -103728.61      550.66765      100.569        100.22344      431.24796      4346708.3      27.528984      126740.34    
      4800   301.11173      0.0024        -0.0094820046  -0.0073234459   1.7910823     -103725.87      546.88946      100.63132      100.21857      431.26948      4349407.5      27.510373      126660.97    
      4900   302.96915      0.00245        0.0037969012   0.0033486437   1.8680671     -103733.59      550.26297      100.58581      100.22647      431.29099      4348000        27.413462      126221.08    
      5000   297.79739      0.0025         0.0010860988   0.0081451936   1.9226106     -103725.51      540.86984      100.65353      100.35462      431.3125       4356708        27.3462        125917.66    
      5100   299.36269      0.00255       -0.0047083405  -0.0057034612   1.9476234     -103727.97      543.71279      100.70968      100.35643      431.33402      4359434.4      27.354953      125964.25    
      5200   295.95434      0.0026         0.0011872043   0.00046405246  1.9907363     -103722.64      537.52242      100.66418      100.46471      431.35553      4362383.9      27.392226      126142.18    
      5300   298.33153      0.00265        0.0030189123  -0.00076110424  2.0575114     -103725.27      541.83996      100.74414      100.46239      431.37704      4365965.5      27.422994      126290.16    
      5400   303.59065      0.0027         0.0028520624  -0.0012208496   2.0704922     -103729.31      551.39175      100.71283      100.61425      431.39856      4371424.7      27.331961      125877.21    
      5500   300.10349      0.00275       -0.0036267724  -0.0029414918   2.1151618     -103722.7       545.05825      100.69349      100.68479      431.42007      4373867.3      27.243664      125476.81    
      5600   301.43729      0.0028        -0.0042047586   0.012377188    2.1835749     -103732.83      547.48075      100.66588      100.78517      431.44158      4377246        27.169461      125141.3     
      5700   299.21152      0.00285        0.0021708706  -0.0064278248   2.2475084     -103733.07      543.43823      100.75893      100.77968      431.46309      4381271.4      27.2278        125416.25    
      5800   300.35805      0.0029         0.004333421   -0.0044330731   2.2819479     -103732.65      545.5206       100.74218      100.85859      431.48461      4384191.9      27.248793      125519.21    
      5900   300.68128      0.00295        0.0031781295  -0.00041148994  2.2984143     -103729.63      546.10765      100.7048       100.97557      431.50612      4387866.6      27.267646      125612.32    
      6000   300.43016      0.003         -0.0090903484   0.011148188    2.3702946     -103726.48      545.65156      100.63316      101.12557      431.52763      4391478        27.27107       125634.36    
      6100   302.86216      0.00305       -0.0029321581  -0.0040982582   2.3972104     -103724.3       550.06864      100.64429      101.17021      431.54915      4394121.2      27.360085      126050.72    
      6200   303.36939      0.0031         0.0065456269  -0.0042481654   2.4743312     -103722.11      550.98989      100.62353      101.21887      431.57066      4395547        27.395646      126220.85    
      6300   300.9012       0.00315        0.0045403348   0.00090064163  2.4765299     -103725.93      546.50708      100.5476       101.40515      431.59217      4400532.7      27.458799      126518.12    
      6400   300.50781      0.0032        -0.012813916    0.0047467286   2.5352848     -103729.74      545.79259      100.51449      101.51042      431.61368      4403869.8      27.45764       126519.09    
      6500   298.37419      0.00325        0.0012273033  -0.0010330667   2.603464      -103726.98      541.91744      100.50788      101.5288       431.6352       4404597.8      27.476512      126612.35    
      6600   300.79357      0.0033         0.0089157841  -0.00011861963  2.5925074     -103728.36      546.31159      100.51741      101.62003      431.65671      4409192.9      27.538881      126906.08    
      6700   302.53195      0.00335       -6.2563933e-05 -0.0059218735   2.6715258     -103723.26      549.46891      100.48211      101.77891      431.67822      4414755.6      27.419841      126363.81    
      6800   302.84254      0.0034         0.0016558165  -0.0017284726   2.7264408     -103721.15      550.03301      100.41555      101.90001      431.69974      4417300.9      27.442666      126475.3     
      6900   300.32128      0.00345       -0.00016523457  0.003254792    2.7670502     -103725.12      545.4538       100.36383      102.02892      431.72125      4420831.4      27.420029      126377.27    
      7000   299.77768      0.0035        -0.0035116282   0.0077105417   2.8290072     -103728.32      544.46651      100.31558      102.18389      431.74276      4425638        27.353154      126075.33    
      7100   300.13254      0.00355       -0.0079057693  -0.0022182336   2.8605275     -103728.76      545.11102      100.34043      102.23672      431.76428      4429243.4      27.368023      126150.15    
      7200   300.13114      0.0036         0.0086244175  -0.0040663877   2.8933363     -103727.96      545.10847      100.32953      102.27994      431.78579      4430855.3      27.458894      126575.31    
      7300   302.01271      0.00365        0.0029700443  -0.00070002295  2.9202263     -103730.29      548.52584      100.29285      102.41856      431.8073       4435459.5      27.444547      126515.48    
      7400   300.22325      0.0037         0.0018557055  -0.0016690832   3.0113834     -103726.59      545.27576      100.28465      102.49035      431.82881      4438427        27.470199      126640.04    
      7500   300.11018      0.00375       -0.0055341737  -0.0028944813   3.004111      -103727.29      545.0704       100.2161       102.61331      431.85033      4440935.5      27.505088      126807.21    
      7600   298.28906      0.0038         0.0051986962   0.00560251     3.1050238     -103727.27      541.76283      100.20419      102.67553      431.87184      4443321.6      27.452373      126570.48    
      7700   299.95032      0.00385       -0.004201914   -0.00062568053  3.121755      -103730.28      544.78006      100.20199      102.79267      431.89335      4448514.6      27.342341      126069.45    
      7800   301.72173      0.0039        -0.010694835    0.0039220356   3.2104247     -103727.69      547.99736      100.23187      102.78799      431.91487      4449859.7      27.341152      126070.25    
      7900   298.61765      0.00395        0.0054330122  -0.0029960579   3.2086215     -103716.22      542.35962      100.32045      102.74799      431.93638      4452281.2      27.327235      126012.35    
      8000   299.57687      0.004          0.0087765328   0.0035551418   3.278295      -103721.04      544.10178      100.33713      102.83935      431.95789      4457202.7      27.394568      126329.13    
      8100   300.03013      0.00405       -0.0037674063  -0.010417397    3.3029924     -103730.17      544.92501      100.40107      102.85502      431.9794       4460944.7      27.3103        125946.8     
      8200   301.0951       0.0041         0.0011751096   0.0057290372   3.4011261     -103731.8       546.85926      100.32612      102.92798      432.00092      4460998.8      27.394222      126340.12    
      8300   299.42036      0.00415        0.00082870317  0.0022138765   3.3978795     -103725.55      543.81753      100.47394      102.89914      432.02243      4466542.7      27.335512      126075.63    
      8400   299.44557      0.0042        -0.0032672746  -0.00013302494  3.476254      -103720.3       543.86331      100.52814      102.95108      432.04394      4471430.4      27.32086       126014.33    
      8500   300.75078      0.00425        0.00095793287 -0.0080865213   3.5225035     -103717.74      546.23388      100.62422      102.84958      432.06546      4471513.6      27.247789      125683.56    
      8600   303.26903      0.0043         0.0084467536   0.0076784531   3.5904936     -103721.93      550.80761      100.61387      102.89939      432.08697      4473442.2      27.219189      125557.89    
      8700   300.23347      0.00435       -0.0098794459   1.8779511e-05  3.6155254     -103726.77      545.29432      100.77537      102.93434      432.10848      4482367.9      27.245133      125683.82    
      8800   299.05227      0.0044        -0.00079568643 -0.00020520299  3.7088112     -103728.63      543.14899      100.84655      102.88659      432.12999      4483676.2      27.261374      125765       
      8900   298.69055      0.00445       -0.00041856503 -0.00065321307  3.6910879     -103726.17      542.49203      100.96471      102.84301      432.15151      4487251.7      27.322494      126053.24    
      9000   299.40332      0.0045         0.0044520484  -0.00024195172  3.7745168     -103721.04      543.78657      101.04413      102.83794      432.17302      4490783.4      27.348054      126177.44    
      9100   302.39955      0.00455        0.002142533   -0.0022410072   3.7893388     -103722.12      549.22843      101.15077      102.83301      432.19453      4495531.2      27.304485      125982.7     
      9200   301.86946      0.0046        -0.0044014157   0.001327972    3.8835814     -103726.62      548.26566      101.16813      102.79576      432.21605      4494897.7      27.255996      125765.23    
      9300   298.11875      0.00465       -0.0054066589   0.0087231126   3.9060667     -103728.64      541.45349      101.31316      102.75632      432.23756      4499837.9      27.342925      126172.62    
      9400   299.12779      0.0047         0.0064946113  -0.0077843047   3.9532176     -103728.05      543.28615      101.48901      102.62059      432.25907      4501918.7      27.367691      126293.19    
      9500   300.70871      0.00475        0.0002254135  -0.0028835395   3.988813      -103724.09      546.15747      101.51258      102.66284      432.28059      4505042.3      27.382161      126366.25    
      9600   298.91065      0.0048         0.0047048059   0.0017202733   4.0324327     -103716.78      542.89177      101.58162      102.59003      432.3021       4505133.2      27.365309      126294.77    
      9700   303.09829      0.00485       -0.0010648839   0.0012162969   4.0749956     -103724.86      550.49751      101.63484      102.66096      432.32361      4510834.2      27.436327      126628.83    
      9800   296.67342      0.0049        -0.010042214    0.0031387425   4.0989588     -103716.91      538.82844      101.80774      102.53006      432.34512      4512971.3      27.507741      126964.74    
      9900   298.02049      0.00495        0.0064987259  -0.0025218258   4.1391683     -103730.18      541.27503      101.89966      102.50175      432.36664      4516023.7      27.550449      127168.19    
     10000   296.88764      0.005          0.0035204511   0.0024712405   4.1760173     -103730.93      539.21752      102.05409      102.45922      432.38815      4521215.7      27.508991      126983.15    
     10100   297.79055      0.00505       -0.00033073588 -0.011554118    4.2564007     -103725.58      540.85741      102.11375      102.46336      432.40966      4524266.5      27.398361      126478.77    
     10200   299.36257      0.0051        -0.0048807515   0.0075274822   4.2704961     -103722.25      543.71256      102.11025      102.45492      432.43118      4523964        27.545788      127165.66    
     10300   301.43194      0.00515        0.0032003737   0.0021396437   4.3642375     -103721.62      547.47103      102.24172      102.43506      432.45269      4529136        27.482098      126877.95    
     10400   300.82855      0.0052        -0.0057967773   0.0011424059   4.3710278     -103718.41      546.37513      102.26991      102.5099       432.4742       4533920.2      27.503067      126981.07    
     10500   298.88579      0.00525       -0.0021816623  -0.00055705546  4.4005133     -103720.34      542.84661      102.3442       102.41803      432.49571      4533373        27.597279      127422.38    
     10600   298.86331      0.0053         0.0071845922   0.0015590269   4.4407665     -103728.87      542.8058       102.37594      102.48322      432.51723      4537890.9      27.579476      127346.52    
     10700   297.67266      0.00535       -0.0010285051  -0.00024337175  4.5111767     -103724.65      540.64329      102.51973      102.47852      432.53874      4544282.3      27.500771      126989.42    
     10800   296.75785      0.0054        -0.0069492873  -0.010007432    4.5589097     -103717.04      538.98179      102.46072      102.53494      432.56025      4544393.5      27.551597      127230.44    
     10900   301.01548      0.00545        0.0066296732   0.015636417    4.62283       -103720.62      546.71465      102.46703      102.54531      432.58177      4545358.8      27.459095      126809.58    
     11000   301.09388      0.0055         0.003732021   -0.007726077    4.656201      -103720.87      546.85703      102.52643      102.62534      432.60328      4551769.1      27.407639      126578.25    
     11100   302.12002      0.00555       -0.0086106593  -0.004263819    4.6915092     -103724.7       548.72075      102.51071      102.71838      432.62479      4555423.7      27.324825      126202.06    
     11200   298.3561       0.0056         0.0078311341   0.0034892227   4.7534085     -103723.91      541.88458      102.49603      102.70306      432.6463       4554318.5      27.278735      125995.46    
     11300   296.04897      0.00565        0.0042123456   0.0068189639   4.7751971     -103727.8       537.69429      102.53177      102.85709      432.66782      4562966.5      27.362854      126390.27    
     11400   296.68995      0.0057        -0.011050761   -0.010427337    4.8093638     -103725.17      538.85846      102.57432      102.83472      432.68933      4564094.2      27.442121      126762.71    
     11500   297.1146       0.00575        0.0046539727   0.0024833629   4.8848094     -103719.44      539.62973      102.45163      102.91157      432.71084      4562268.6      27.32787       126241.23    
     11600   302.62724      0.0058         0.0019959735   0.0092306927   4.9591926     -103724.7       549.64196      102.44638      103.02783      432.73236      4567415.9      27.243896      125859.57    
     11700   302.84364      0.00585       -0.0027866309  -0.010520571    4.9794124     -103719.73      550.035        102.47263      103.08745      432.75387      4571457.4      27.237614      125836.81    
     11800   302.52477      0.0059        -0.0034514821  -6.7220942e-06  5.0424316     -103715.47      549.45587      102.34302      103.22095      432.77538      4571814.6      27.235441      125833.02    
     11900   300.92205      0.00595        0.0049568336   0.0039054001   5.0664216     -103716.58      546.54495      102.38486      103.26789      432.7969       4575991        27.254128      125925.62    
     12000   299.61416      0.006          0.0025153845  -0.0022916793   5.1174222     -103723.38      544.16951      102.38516      103.41184      432.81841      4582611.3      27.196446      125665.35    
     12100   297.53672      0.00605       -0.0077120179  -0.00024781073  5.1862159     -103719.34      540.3964       102.35538      103.44816      432.83992      4583114.7      27.167345      125537.12    
     12200   300.5866       0.0061         0.0049708955   0.0059711534   5.2229944     -103719.75      545.93569      102.31182      103.53125      432.86143      4585072        27.197856      125684.36    
     12300   300.93996      0.00615        0.0052724276  -0.0054990447   5.2430592     -103716.32      546.57747      102.37586      103.62915      432.88295      4592508.7      27.228945      125834.28    
     12400   301.05849      0.0062        -0.0023677781  -0.006863202    5.3161765     -103716.45      546.79276      102.26649      103.77279      432.90446      4594189.6      27.21307       125767.16    
     12500   297.56357      0.00625       -0.004599561    0.0091620852   5.3445284     -103720.11      540.44516      102.18213      103.84795      432.92597      4593952.7      27.169403      125571.59    
     12600   299.13292      0.0063         0.0027697003   0.0019033793   5.3928036     -103724.29      543.29547      102.20163      103.89161      432.94749      4596989.9      27.22127       125817.57    
     12700   301.03228      0.00635       -0.0073985092  -0.0033849674   5.3824018     -103721.04      546.74515      102.16279      104.00011      432.969        4600270        27.32196       126289.23    
     12800   301.13286      0.0064         0.0048378327   0.0011924497   5.4499253     -103715.24      546.92783      102.19252      104.00077      432.99051      4601866.9      27.289752      126146.63    
     12900   301.7212       0.00645        0.0081492422  -0.0050457926   5.4794346     -103716.57      547.9964       102.09206      104.17284      433.01202      4605178        27.257778      126005.08    
     13000   300.68633      0.0065        -0.0060692053   0.0015759354   5.5116474     -103718.75      546.11682      102.09418      104.23723      433.03354      4608349.2      27.311989      126261.96    
     13100   296.5247       0.00655        0.0020208969  -0.0031125951   5.5693466     -103715.28      538.55834      102.00315      104.31106      433.05505      4607730.1      27.3742        126555.85    
     13200   300.86416      0.0066        -0.0052423458   0.014607953    5.6046666     -103724.38      546.43981      101.95423      104.4345       433.07656      4611199.6      27.403741      126698.71    
     13300   298.04687      0.00665       -0.0022778553  -0.0033732103   5.6448282     -103713.62      541.32296      102.06579      104.42356      433.09808      4615991        27.434523      126847.33    
     13400   300.95301      0.0067         0.0036974286  -0.0082910252   5.702157      -103711.69      546.60118      102.04292      104.50657      433.11959      4618854.9      27.368979      126550.57    
     13500   300.56695      0.00675        0.0040473225   0.0026555137   5.7326611     -103710.5       545.9          102.03102      104.53942      433.1411       4619997.3      27.387533      126642.65    
     13600   300.30697      0.0068         0.0032980541  -0.0067494711   5.7737315     -103715.67      545.42782      102.06868      104.63448      433.16261      4626135        27.439367      126888.64    
     13700   299.11296      0.00685       -0.0069446247   0.002658277    5.8093346     -103718.91      543.25921      102.00969      104.68284      433.18413      4625827.6      27.454492      126964.88    
     13800   296.54727      0.0069         0.0043994173   0.006888456    5.863253      -103714.36      538.59932      102.04777      104.73419      433.20564      4630054.2      27.392598      126684.94    
     13900   298.02394      0.00695       -0.0043572279  -0.001769395    5.8957305     -103710.42      541.2813       102.11175      104.76064      433.22715      4634357.4      27.381093      126638.02    
     14000   303.81075      0.007         -0.0011864906  -0.0049240745   5.9844613     -103713.1       551.7915       102.15216      104.7755       433.24867      4637079.4      27.343874      126472.16    
     14100   301.99645      0.00705        0.0054985716   0.0099860167   5.9968145     -103711.82      548.49632      102.16089      104.75165      433.27018      4636650.3      27.36399       126571.49    
     14200   301.49407      0.0071        -0.0012567531  -0.0024643671   6.0431969     -103717.17      547.58387      102.30247      104.79163      433.29169      4645079.1      27.384831      126674.18    
     14300   299.88034      0.00715       -0.0072497775  -0.0095874122   6.073131      -103719.36      544.65296      102.31034      104.72076      433.31321      4642524.8      27.303347      126303.53    
     14400   296.3214       0.0072         0.0076369834   0.0078240418   6.1653707     -103713.71      538.1891       102.34534      104.74883      433.33472      4645588.4      27.349202      126521.93    
     14500   300.12861      0.00725       -0.00041023652 -0.002089871    6.2003297     -103712.22      545.10388      102.4036       104.74091      433.35623      4648112.6      27.39397       126735.33    
     14600   299.09813      0.0073        -0.0049698123  -0.00068923011  6.2274267     -103705.38      543.23228      102.43301      104.74835      433.37774      4650008.4      27.393354      126738.77    
     14700   300.25959      0.00735       -0.00025854854  0.0084189687   6.2621287     -103709.54      545.34177      102.47287      104.67884      433.39926      4648961.9      27.443191      126975.65    
     14800   299.06315      0.0074         0.0056246692  -0.0040213864   6.353557      -103711.15      543.16876      102.62806      104.70282      433.42077      4657300        27.400611      126784.93    
     14900   298.78675      0.00745       -0.0051103169  -0.0059529833   6.3326998     -103714.04      542.66674      102.69029      104.6192       433.44228      4656633.6      27.453609      127036.46    
     15000   300.32096      0.0075         0.0086434497  -0.0011806597   6.4253619     -103723.57      545.45322      102.75518      104.61865      433.4638       4659782.7      27.377744      126691.7     
     15100   296.30685      0.00755       -0.0015791183   0.0088396261   6.4813368     -103716.67      538.16267      102.79016      104.67721      433.48531      4664209.7      27.349133      126565.58    
     15200   300.5108       0.0076        -0.0083253646  -0.0071303552   6.5132255     -103713.92      545.79802      102.90208      104.63069      433.50682      4667444.3      27.354181      126595.23    
     15300   299.4777       0.00765        0.0014039402   0.0034149209   6.5888684     -103708.27      543.92167      102.93575      104.60911      433.52833      4668240.6      27.263181      126180.34    
     15400   298.0122       0.0077         0.002357057    0.0012323472   6.6212881     -103704.93      541.25999      103.06736      104.55164      433.54985      4671873.4      27.288279      126302.77    
     15500   299.29998      0.00775        0.0045475171  -0.0028137896   6.677851      -103708.42      543.59889      103.1703       104.54639      433.57136      4676536.3      27.286524      126300.91    
     15600   297.9483       0.0078        -0.0027058278  -0.0089735679   6.7039965     -103711.45      541.14393      103.20056      104.49177      433.59287      4675696.2      27.263279      126199.58    
     15700   298.12343      0.00785        0.0019153277   0.013267661    6.7585451     -103716.63      541.46201      103.22777      104.54795      433.61439      4679675.6      27.263242      126205.67    
     15800   299.82586      0.0079        -0.0063512714   0.0011383269   6.7994133     -103715.03      544.55401      103.37004      104.46948      433.6359       4682840.2      27.292279      126346.36    
     15900   302.39242      0.00795        0.0032316607  -0.0067865165   6.8132315     -103710.3       549.21549      103.45925      104.42361      433.65741      4685056.4      27.317796      126470.76    
     16000   302.88452      0.008          0.0021808702   0.0012150119   6.8874423     -103710.48      550.10925      103.45542      104.42217      433.67892      4685050.5      27.273567      126272.26    
     16100   297.26285      0.00805        0.0035016623  -2.8482567e-06  6.9064302     -103704.45      539.89898      103.58416      104.44497      433.70044      4692137.8      27.328582      126533.25    
     16200   298.22385      0.0081        -0.0087866525   0.00011949321  6.9739181     -103709.7       541.64439      103.55717      104.39989      433.72195      4689123        27.310483      126455.72    
     16300   298.70754      0.00815        0.00093894326  0.0048051568   6.9853311     -103715.26      542.52288      103.69268      104.30963      433.74346      4691432.6      27.331951      126561.4     
     16400   298.15462      0.0082         0.0127132     -0.0043086494   7.0611965     -103716.72      541.51865      103.79105      104.31118      433.76498      4696185.5      27.300241      126420.83    
     16500   299.824        0.00825       -0.01480174    -0.0093651155   7.0389014     -103710.25      544.55063      103.76166      104.37467      433.78649      4697946.3      27.366554      126734.2     
     16600   300.2522       0.0083         0.0059347098   0.010875113    7.1226955     -103704.62      545.32834      103.84749      104.29485      433.808        4698469.8      27.492782      127325.07    
     16700   298.68727      0.00835       -0.0006691173   0.003413739    7.1092426     -103700.37      542.48606      103.87614      104.36083      433.82952      4702972.2      27.542334      127560.89    
     16800   300.77186      0.0084        -0.0042885946  -0.003951071    7.1912484     -103707         546.27217      103.96002      104.33153      433.85103      4705681.8      27.443792      127110.8     
     16900   297.25932      0.00845        0.0040098242  -0.0028149458   7.2075264     -103708.72      539.89257      103.97132      104.27411      433.87254      4703836.1      27.427215      127040.32    
     17000   298.13754      0.0085         0.0077055786   0.004181127    7.2939075     -103711.55      541.48763      104.03451      104.38428      433.89405      4711901.7      27.375619      126807.62    
     17100   297.68952      0.00855       -0.0059164949  -0.006458774    7.3566294     -103706.06      540.67392      104.02886      104.40423      433.91557      4712779.6      27.355863      126722.39    
     17200   302.02603      0.0086        -0.001527785    0.003079938    7.4048499     -103709.77      548.55003      103.97928      104.51322      433.93708      4715685        27.384394      126860.84    
     17300   299.75981      0.00865        0.00089217238  0.0073155511   7.3823689     -103704.9       544.43406      103.94128      104.57878      433.95859      4717152.9      27.441605      127132.18    
     17400   299.92883      0.0087        -0.0059233286  -0.0037999398   7.4624991     -103707.64      544.74103      103.97036      104.67755      433.98011      4723162.6      27.482611      127328.46    
     17500   297.74391      0.00875       -0.0004439701  -0.0021320766   7.4877035     -103708.41      540.7727       103.91718      104.68516      434.00162      4721324.1      27.541898      127609.47    
     17600   295.53659      0.0088         0.0076278234   0.0035026731   7.5653137     -103707.67      536.7637       103.9207       104.76605      434.02313      4725366.6      27.411248      127010.43    
     17700   298.67933      0.00885        0.0006993902  -0.0031092336   7.6266537     -103705.36      542.47164      103.89514      104.86574      434.04464      4728933.9      27.372567      126837.48    
     17800   302.22676      0.0089        -0.00022512612 -0.013001849    7.6610252     -103705.01      548.9146       103.77235      104.94375      434.06616      4727093        27.375036      126855.21    
     17900   303.01108      0.00895        0.0017604869   0.0105777      7.671555      -103705.69      550.33912      103.65193      105.09856      434.08767      4728807        27.459182      127251.45    
     18000   298.67945      0.009         -0.0010661472   9.9398485e-05  7.7261802     -103700.78      542.47186      103.63682      105.27531      434.10918      4736304.4      27.432463      127133.93    
     18100   297.30705      0.00905       -0.0049982791   0.0029442818   7.7931992     -103705.72      539.97926      103.47778      105.38491      434.1307       4734193.9      27.402528      127001.49    
     18200   297.88069      0.0091         0.0016931448  -0.0018593726   7.8342107     -103707.88      541.02113      103.48605      105.41448      434.15221      4736135.2      27.380373      126905.1     
     18300   301.53696      0.00915        0.0057623455  -0.0022059774   7.8808266     -103702.41      547.66176      103.44524      105.55096      434.17372      4740632.1      27.356877      126802.48    
     18400   300.65082      0.0092        -0.0064190586  -0.0031597258   7.9127081     -103698.91      546.05234      103.35441      105.71268      434.19523      4743961.5      27.30688       126577.01    
     18500   298.43201      0.00925       -0.00070692797  0.0082313395   7.993832      -103698.13      542.02246      103.23301      105.76677      434.21675      4741048.6      27.343715      126754.03    
     18600   298.51111      0.0093         0.0013361645   0.0032600403   8.0020787     -103700.97      542.16611      103.25089      105.88927      434.23826      4747597.3      27.38375       126945.91    
     18700   299.09279      0.00935       -0.0016469098  -0.0061619642   8.0733266     -103704.24      543.22259      103.25847      105.93872      434.25977      4750397.9      27.360255      126843.27    
     18800   297.65592      0.0094         0.005327407   -0.003484227    8.1103957     -103702.66      540.61289      103.15937      106.02962      434.28129      4750146.5      27.323378      126678.58    
     18900   302.9915       0.00945        0.0060835331   0.0014566639   8.1562704     -103707.63      550.30355      103.11029      106.18738      434.3028       4755186.6      27.364826      126877.04    
     19000   300.60256      0.0095        -0.012410287    0.0027998614   8.2006259     -103696.09      545.96468      103.02893      106.301        434.32431      4756753.9      27.316917      126661.18    
     19100   302.57342      0.00955       -0.0055364422   0.0055152502   8.2725157     -103698.35      549.54423      103.03556      106.27822      434.34583      4756276        27.277596      126485.12    
     19200   298.13567      0.0096         0.010993855   -0.0015082976   8.3201012     -103697.87      541.48424      103.05229      106.32328      434.36734      4759300.9      27.202026      126140.95    
     19300   296.82527      0.00965       -5.8239253e-05 -0.0060668226   8.3803198     -103700.55      539.10424      103.07249      106.41323      434.38885      4764497.1      27.224782      126252.73    
     19400   298.17727      0.0097         0.00016285922 -0.0017675989   8.4418565     -103698.92      541.55978      102.9642       106.45671      434.41036      4761672        27.180786      126054.95    
     19500   301.73403      0.00975        0.006738118    0.0043059502   8.4277159     -103700.18      548.01969      102.97534      106.53472      434.43188      4765912.8      27.247336      126369.84    
     19600   299.26245      0.0098        -0.011488075    0.00046043378  8.4772332     -103692.52      543.53072      102.90167      106.67055      434.45339      4768811.1      27.296079      126602.17    
     19700   303.16436      0.00985       -0.0031192853   0.0021490345   8.5016173     -103696.48      550.61751      102.97139      106.56186      434.4749       4767416        27.296169      126608.86    
     19800   302.04975      0.0099         0.010962961   -0.00070338121  8.5593303     -103695.09      548.59312      103.03149      106.57143      434.49642      4770863.1      27.24905       126396.56    
     19900   299.06814      0.00995       -0.0029592987  -0.0046983989   8.5842838     -103696.46      543.17781      103.05006      106.65325      434.51793      4775623.3      27.326562      126762.39    
     20000   297.39264      0.01          -0.0036489068  -0.0020927015   8.6038404     -103697.74      540.13471      103.02793      106.57886      434.53944      4771503.8      27.36584       126950.87    
     20100   301.7311       0.01005        0.0085160333   0.012325907    8.6269168     -103702.45      548.01437      103.08075      106.63299      434.56095      4776610.7      27.477673      127475.98    
     20200   301.79868      0.0101        -0.0065987244  -0.0080649551   8.6579323     -103694.76      548.13711      103.21444      106.59722      434.58247      4781438.4      27.486144      127521.59    
     20300   302.696        0.01015       -0.00060167722 -0.0035504602   8.7009876     -103694.89      549.76686      103.19753      106.5718       434.60398      4779751.2      27.50084       127596.09    
     20400   301.51339      0.0102        -0.0027583527   0.012908043    8.7498251     -103694.84      547.61896      103.28699      106.56043      434.62549      4783621.1      27.483195      127520.53    
     20500   298.99694      0.01025        5.8889935e-05 -0.0080199915   8.7899787     -103692.55      543.0485       103.43779      106.54444      434.64701      4790123.5      27.477127      127498.69    
     20600   297.32196      0.0103        -0.0011632302   0.0005734739   8.837857      -103692.31      540.00634      103.45154      106.45542      434.66852      4786994.8      27.467086      127458.41    
     20700   298.24313      0.01035        0.0061222072  -0.0003188351   8.8757964     -103694.7       541.6794       103.61605      106.37365      434.69003      4791161.1      27.438522      127332.16    
     20800   298.37561      0.0104         0.0026442554  -0.0026201272   8.952411      -103694.32      541.92003      103.61498      106.4408       434.71154      4794373.5      27.392695      127125.78    
     20900   300.41335      0.01045       -0.0081684207  -0.0027247898   9.0019088     -103693.95      545.62102      103.72435      106.33054      434.73306      4794699.6      27.31374       126765.64    
     21000   300.87697      0.0105         0.009899019    0.0072063703   9.0670228     -103691.46      546.46306      103.72739      106.30677      434.75457      4794005.5      27.318552      126794.25    
     21100   301.52206      0.01055       -0.010020128    0.0022954438   9.0877064     -103690.65      547.63471      103.92689      106.26481      434.77608      4801567.4      27.392964      127145.91    
     21200   301.2531       0.0106         0.0013713763  -0.00438314     9.133297      -103693.75      547.14621      103.99499      106.12865      434.7976       4798794.7      27.412265      127241.79    
     21300   298.95452      0.01065        0.00061515664  0.0049696075   9.1759847     -103696.66      542.97145      104.03564      106.15918      434.81911      4802289        27.407102      127224.12    
     21400   296.35419      0.0107        -0.0043863827   0.00022101246  9.2239404     -103692.29      538.24865      104.19881      106.03573      434.84062      4804465.5      27.391801      127159.38    
     21500   300.85102      0.01075        0.0016319757  -0.0059970475   9.2725391     -103692.43      546.41594      104.23444      105.94162      434.86214      4802080.5      27.373203      127079.33    
     21600   301.70795      0.0108         0.0069728643   0.0060725812   9.3210931     -103687.91      547.97234      104.31439      105.93845      434.88365      4805857.9      27.420782      127306.51    
     21700   299.93253      0.01085       -0.0012205452  -0.0083953836   9.343577      -103686.41      544.74775      104.43202      105.87349      434.90516      4808564.7      27.397976      127206.93    
     21800   298.4665       0.0109        -0.00010477956  0.0024004315   9.4413009     -103687.2       542.0851       104.45529      105.8978       434.92667      4810978.4      27.308855      126799.41    
     21900   300.04635      0.01095        0.0041412278   0.0025339846   9.4656415     -103694.37      544.95448      104.51209      105.82113      434.94819      4810347.6      27.279177      126667.88    
     22000   299.48571      0.011         -0.0024557754  -0.0023700875   9.540033      -103695.03      543.93622      104.60208      105.92037      434.9697       4819243.2      27.274967      126654.6     
     22100   301.54691      0.01105       -0.0061706727  -0.0032421629   9.542222      -103693.23      547.67983      104.6021       105.82161      434.99121      4814988.5      27.302397      126788.24    
     22200   301.87648      0.0111         0.0043854858   0.0094104599   9.6268369     -103686.77      548.27842      104.68426      105.80024      435.01273      4818035.5      27.21539       126390.45    
     22300   300.22806      0.01115       -0.0035448575  -0.00093775703  9.7075746     -103683.13      545.2845       104.7838       105.79662      435.03424      4822690.4      27.200543      126327.74    
     22400   298.6892       0.0112         0.00064135391 -0.009024975    9.735472      -103687.32      542.48957      104.8115       105.72987      435.05575      4821160.1      27.251927      126572.64    
     22500   300.05995      0.01125        0.010508838    0.0039946634   9.7815047     -103694.57      544.97917      104.77544      105.73525      435.07726      4819985.1      27.182843      126258.02    
     22600   297.39001      0.0113        -0.0054095232  -5.2352821e-05  9.8403123     -103687.52      540.12993      104.84785      105.8327       435.09878      4827999.8      27.204375      126364.28    
     22700   296.94983      0.01135       -0.007336616   -0.0035241507   9.8854009     -103682.81      539.33046      104.80477      105.82314      435.12029      4825818.8      27.198467      126343.09    
     22800   300.19121      0.0114         0.0055386678   0.0095128697   9.9329971     -103684.03      545.21757      104.81501      105.85852      435.1418       4828142.8      27.183005      126277.5     
     22900   297.95332      0.01145        0.0025299025   0.0017812041   9.9452006     -103678.79      541.15303      104.87479      105.92099      435.16332      4833986.3      27.232552      126513.93    
     23000   297.63799      0.0115        -0.0070264442  -0.0096776708   9.9910772     -103682.5       540.58033      104.84334      105.89465      435.18483      4831573.9      27.223186      126476.67    
     23100   297.90423      0.01155        0.0078558039   0.0024487321   10.003625     -103691.14      541.06387      104.7545       105.96708      435.20634      4831020.5      27.278877      126741.67    
     23200   297.96138      0.0116        -0.0019357946   0.0048264872   10.050261     -103688.82      541.16767      104.77376      106.08855      435.22785      4837686.7      27.290817      126803.42    
     23300   299.56687      0.01165       -0.0049369512  -0.012274001    10.012128     -103683.9       544.08363      104.72267      106.08371      435.24937      4835346        27.438594      127496.34    
     23400   301.25684      0.0117         0.0055227022   0.0094278537   10.061363     -103683.44      547.15301      104.64984      106.14267      435.27088      4834907.5      27.493629      127758.38    
     23500   300.50088      0.01175        0.00016510451  0.00057695593  10.149988     -103680.82      545.78         104.69929      106.21609      435.29239      4840777.6      27.428872      127463.77    
     23600   297.83582      0.0118        -0.0038356198  -0.0090300591   10.192216     -103677.16      540.93962      104.59854      106.33215      435.31391      4841642.6      27.356433      127133.42    
     23700   297.12989      0.01185        0.0075067943   0.007029099    10.229494     -103684.56      539.65751      104.55065      106.39101      435.33542      4842344.2      27.438828      127522.64    
     23800   296.46187      0.0119        -0.00023880958 -0.00239756     10.269752     -103685.72      538.44421      104.51609      106.56072      435.35693      4848704.9      27.401568      127355.76    
     23900   297.932        0.01195       -0.009957047   -0.0039522821   10.311241     -103682.4       541.11432      104.37563      106.64037      435.37845      4846047.6      27.429621      127492.45    
     24000   299.64168      0.012          0.0057744358   0.007365595    10.34641      -103680.35      544.2195       104.30004      106.72223      435.39996      4846495.1      27.481867      127741.6     
     24100   300.19173      0.01205        9.7838384e-05  0.0018595766   10.407695     -103679.56      545.21852      104.27691      106.9032       435.42147      4853876.3      27.429773      127505.76    
     24200   303.38756      0.0121        -0.008503326   -0.0057740366   10.413873     -103686.76      551.02289      104.14671      106.96604      435.44298      4850904.9      27.516217      127913.9     
     24300   297.14026      0.01215        0.0064813569   0.0094563951   10.443024     -103679.61      539.67633      104.11859      107.03744      435.4645       4853072.3      27.545312      128055.49    
     24400   298.73248      0.0122         0.0029802271  -0.0067577488   10.529919     -103689.93      542.56817      104.04648      107.19044      435.48601      4856883.2      27.450119      127619.25    
     24500   298.47016      0.01225        0.00024275048 -0.0042830119   10.557473     -103685.54      542.09175      103.98574      107.26147      435.50752      4857504.1      27.4819        127773.31    
     24600   300.70345      0.0123         0.00056361175  0.0029115716   10.640151     -103680.64      546.14793      103.88149      107.35311      435.52904      4857020.2      27.405594      127424.83    
     24700   299.20463      0.01235        0.0021335854   0.0007510137   10.709525     -103676.63      543.42572      103.87158      107.42785      435.55055      4860177.8      27.281827      126855.63    
     24800   299.81173      0.0124        -0.011399316    0.00022633857  10.757753     -103677.43      544.52834      103.73511      107.55991      435.57206      4859999.3      27.279126      126849.34    
     24900   299.31275      0.01245        0.00029839487  0.0075319358   10.793652     -103677.02      543.62208      103.75228      107.51959      435.59357      4859222        27.303163      126967.38    
     25000   298.98327      0.0125         0.0067744168  -0.0029465711   10.802411     -103677.03      543.02367      103.72953      107.61152      435.61509      4862549.9      27.343526      127161.36    
     25100   299.57125      0.01255       -0.0056986321  -0.0045741379   10.888396     -103675.53      544.09158      103.75926      107.6357       435.6366       4865276.9      27.26703       126811.88    
     25200   302.72485      0.0126         0.011564963   -0.0025043752   10.968925     -103674.57      549.81925      103.70966      107.60948      435.65811      4862006.4      27.212477      126564.42    
     25300   301.81676      0.01265        5.3983148e-05  0.0023785137   10.974587     -103671.4       548.16995      103.71771      107.77905      435.67963      4870286.4      27.233468      126668.3     
     25400   299.15471      0.0127        -0.0089304105   0.00056110372  11.03357      -103675.9       543.33504      103.71982      107.78976      435.70114      4871110.3      27.183007      126439.84    
     25500   301.75311      0.01275        0.0027738372   0.0014682673   11.083228     -103683.09      548.05435      103.68243      107.76659      435.72265      4868547.7      27.221339      126624.39    
     25600   299.8026       0.0128        -0.00083429992  0.0048569369   11.131179     -103677.01      544.51177      103.76408      107.83129      435.74416      4875548        27.177789      126428.05    
     25700   301.64775      0.01285       -0.0047190291  -0.010144648    11.154479     -103674.75      547.86299      103.76906      107.78115      435.76568      4873755.3      27.250118      126770.77    
     25800   303.69278      0.0129         0.0049051085   0.0054004843   11.169501     -103674.05      551.57724      103.75671      107.72591      435.78719      4870918.1      27.272336      126880.4     
     25900   302.3273       0.01295        0.0021077506   0.0016236036   11.265984     -103668.77      549.09721      103.85327      107.74689      435.8087       4876641.6      27.224701      126665.04    
     26000   301.12203      0.013         -0.0026385714  -0.0075512113   11.296415     -103666.45      546.90816      103.9045       107.70358      435.83022      4877326.2      27.23487       126718.6     
     26100   298.16319      0.01305        0.0065891611   0.0044860862   11.388868     -103668.3       541.5342       103.92536      107.67268      435.85173      4877146.9      27.16522       126400.78    
     26200   300.14024      0.0131        -0.0065155197   0.0065479185   11.385761     -103676.29      545.12499      104.00823      107.65343      435.87324      4880404.1      27.190465      126524.48    
     26300   300.17384      0.01315       -0.0081017699  -0.0056800385   11.444646     -103675.08      545.18602      104.17706      107.54672      435.89476      4883721.8      27.171788      126443.82    
     26400   300.05705      0.0132         0.0098298438   0.0018777984   11.428211     -103668.44      544.9739       104.20573      107.47946      435.91627      4882251.3      27.301942      127055.76    
     26500   303.47169      0.01325       -3.6976108e-05 -0.00030873568  11.411922     -103666.56      551.17569      104.31261      107.45572      435.93778      4886420.7      27.431109      127663.17    
     26600   302.46472      0.0133        -0.0025682285  -0.0054795626   11.46248      -103666.43      549.3468       104.37482      107.36956      435.95929      4885655.6      27.405282      127549.26    
     26700   298.07258      0.01335        0.00046257443  0.0055416783   11.509204     -103669.79      541.36964      104.43212      107.2945       435.98081      4885161.4      27.395666      127510.8     
     26800   298.22754      0.0134         0.0042191151   0.0058758856   11.568108     -103670.27      541.65108      104.54763      107.29023      436.00232      4890611.5      27.375131      127421.51    
     26900   304.16215      0.01345       -0.0084723304  -0.0087566182   11.562886     -103677.19      552.42973      104.61031      107.17746      436.02383      4888641.5      27.435914      127710.74    
     27000   304.04615      0.0135         0.0067587563   0.0041567568   11.661505     -103670.7       552.21905      104.74864      107.03066      436.04535      4888642.2      27.411269      127602.31    
     27100   301.38818      0.01355        0.0021669813  -0.0020760207   11.672016     -103662.31      547.39155      104.82624      106.99336      436.06686      4890800        27.369227      127412.89    
     27200   302.35531      0.0136        -0.0080507348  -0.0086562469   11.754742     -103668.48      549.14809      104.97149      106.92957      436.08837      4894898.2      27.370915      127427.03    
     27300   298.71862      0.01365        0.0075264621   0.0033205903   11.783805     -103671.51      542.54301      105.01201      106.78143      436.10988      4890245.2      27.371771      127437.3     
     27400   299.21315      0.0137         0.0029408914   0.0070399472   11.848187     -103671.32      543.44119      105.12975      106.83927      436.1314       4898621.7      27.319417      127199.83    
     27500   301.1779       0.01375       -0.0089317787  -0.0030321761   11.887916     -103668.87      547.00963      105.19732      106.74101      436.15291      4897503.7      27.327513      127243.8     
     27600   302.40684      0.0138        -0.0020700898   0.0043267994   11.91586      -103665.09      549.24168      105.23053      106.68318      436.17442      4896637        27.359786      127400.36    
     27700   299.81906      0.01385        0.0068019934   0.0064569223   11.968141     -103660.43      544.54165      105.40199      106.63588      436.19594      4902682.9      27.378849      127495.41    
     27800   301.01477      0.0139        -0.0042037113  -0.016273407    11.933422     -103666.06      546.71335      105.49218      106.52464      436.21745      4902000.7      27.426017      127721.36    
     27900   299.35155      0.01395        0.0056456957   0.0042774838   12.045792     -103664.53      543.69255      105.44405      106.52846      436.23896      4900181.7      27.363078      127434.54    
     28000   297.9418       0.014          0.0020832885   0.00039609758  12.106874     -103660.85      541.13212      105.47885      106.54097      436.26047      4902616.6      27.32815       127278.15    
     28100   300.6106       0.01405       -0.0041864555  -0.0028030272   12.119155     -103661.23      545.97928      105.4357       106.54496      436.28199      4901035.6      27.394191      127592.02    
     28200   300.97783      0.0141        -0.0014016731   0.010710974    12.155808     -103652.67      546.64625      105.37593      106.60281      436.3035       4901158.9      27.368985      127480.91    
     28300   304.10969      0.01415        0.00053724342 -0.00031070317  12.220421     -103656.86      552.33445      105.47075      106.55392      436.32501      4903560.9      27.319607      127257.19    
     28400   299.99857      0.0142        -0.0039254642  -0.003757567    12.297347     -103659.55      544.86769      105.48609      106.54228      436.34653      4903979.8      27.271665      127040.13    
     28500   300.06886      0.01425        0.0051777125  -0.0017331915   12.321802     -103662.55      544.99536      105.48984      106.55098      436.36804      4904796.6      27.279422      127082.53    
     28600   299.52988      0.0143         0.0022910067  -0.0029577694   12.348757     -103662.1       544.01645      105.49914      106.62872      436.38955      4909050.3      27.311371      127237.64    
     28700   299.62735      0.01435        0.0020318155  -0.0036497101   12.417014     -103660.05      544.19347      105.4139       106.68776      436.41107      4908041.5      27.264391      127025.03    
     28800   297.88623      0.0144        -0.004554608    0.0050507517   12.489561     -103652.7       541.03118      105.30339      106.80023      436.43258      4908306.8      27.202801      126744.33    
     28900   302.22804      0.01445       -0.00028112608  0.0042478784   12.524312     -103654.7       548.91693      105.31974      106.847        436.45409      4911460.7      27.259462      127014.59    
     29000   306.46221      0.0145        -0.0032759979  -0.0083955785   12.57511      -103661.7       556.60717      105.24268      106.91367      436.4756       4911171.5      27.195792      126724.17    
     29100   299.20173      0.01455        0.0073374433   0.008067932    12.642932     -103658.93      543.42045      105.15909      107.02114      436.49712      4912445.7      27.197241      126737.16    
     29200   295.24921      0.0146        -0.0034148796   0.0016993093   12.661785     -103654.66      536.24174      105.11218      107.13257      436.51863      4915609.2      27.168879      126611.24    
     29300   299.85945      0.01465       -0.0089038872  -0.0042195912   12.740516     -103659.2       544.61501      105.03697      107.24488      436.54014      4917483.8      27.153661      126546.56    
     29400   301.06832      0.0147         0.011222672    0.0031767866   12.750775     -103654.44      546.81061      104.96675      107.25374      436.56166      4914844.7      27.23751       126943.58    
     29500   302.93387      0.01475       -0.0023638202  -0.0048993935   12.731521     -103655.18      550.19889      104.90227      107.4148       436.58317      4919443.7      27.287549      127183.06    
     29600   299.4527       0.0148         0.0017608401  -0.00053472504  12.796997     -103657.27      543.87626      104.77914      107.51941      436.60468      4918697.5      27.297785      127237.04    
     29700   298.22351      0.01485        0.0016474159   0.0069066238   12.838143     -103660.25      541.64376      104.67191      107.64785      436.62619      4919775.5      27.310769      127303.83    
     29800   299.04116      0.0149        -0.0091791002  -0.0040334226   12.910919     -103656.82      543.12882      104.6402       107.77044      436.64771      4924128.7      27.264137      127092.73    
     29900   298.11285      0.01495        0.00041832227  0.0020549294   12.977253     -103648.09      541.44279      104.49768      107.76628      436.66922      4917474.7      27.222767      126906.13    
     30000   302.15444      0.015          0.0051842657   0.0042581228   12.972309     -103652.58      548.78326      104.48435      107.85779      436.69073      4921264.9      27.256384      127069.1     
     30100   300.66784      0.01505        0.00054863067 -0.0078751408   12.997673     -103651.27      546.08325      104.37756      107.94389      436.71225      4920402.1      27.331134      127423.87    
     30200   299.98743      0.0151         0.0023201676   0.00042723644  13.024701     -103658.87      544.84746      104.30339      107.99279      436.73376      4919375        27.356022      127546.18    
     30300   298.67797      0.01515        0.0073309175  -0.00061902294  13.032354     -103656.86      542.46918      104.2617       108.1463       436.75527      4924641.4      27.412346      127815.09    
     30400   299.92479      0.0152        -0.0099568538  -0.0053984489   13.11509      -103652.85      544.73369      104.14473      108.24678      436.77679      4923929.3      27.372379      127635.02    
     30500   301.10582      0.01525       -0.00010372262  0.0078854497   13.149023     -103651.87      546.87871      104.0951       108.30048      436.7983       4924267.5      27.368244      127622.03    
     30600   297.8403       0.0153         0.0035133111  -0.0016436096   13.156834     -103646.56      540.94776      104.12918      108.37425      436.81981      4929477.4      27.428203      127907.92    
     30700   300.89911      0.01535       -0.0053938269  -0.0060923972   13.237865     -103652.51      546.50329      103.99072      108.44233      436.84132      4926257.6      27.39754       127771.22    
     30800   298.14289      0.0154         0.0012984742   0.010645291    13.295011     -103651.42      541.49733      103.96684      108.46191      436.86284      4926258.5      27.308289      127361.26    
     30900   296.44972      0.01545        0.0011926026   0.0015291159   13.345778     -103653.69      538.42214      104.00216      108.5485       436.88435      4932109.1      27.338798      127509.83    
     31000   298.47027      0.0155        -0.0035365516  -0.0067389703   13.407566     -103653.95      542.09195      103.92711      108.52723      436.90586      4927827.1      27.264863      127171.26    
     31100   300.68498      0.01555        0.0038056939   0.0048326012   13.448202     -103647.95      546.11437      103.93212      108.59321      436.92738      4931303.3      27.280446      127250.21    
     31200   302.29516      0.0156        -0.0016229424  -0.00077538542  13.490189     -103648.98      549.03884      103.91463      108.58064      436.94889      4930145.8      27.293391      127316.85    
     31300   300.92088      0.01565       -0.0088055957  -0.00097587333  13.543508     -103647.86      546.54283      103.93567      108.57515      436.9704       4931136.7      27.274439      127234.71    
     31400   296.69653      0.0157         0.006110113    0.0069535448   13.535902     -103644.16      538.87042      104.00343      108.4594       436.99191      4929333.9      27.349776      127592.44    
     31500   297.50271      0.01575        0.0047963747  -0.0071021292   13.586168     -103651.06      540.33462      104.04185      108.50918      437.01343      4933661.5      27.356795      127631.47    
     31600   298.24803      0.0158        -0.00056647138 -0.0030010694   13.635612     -103650.07      541.6883       104.05934      108.44977      437.03494      4932031.9      27.351172      127611.52    
     31700   299.71688      0.01585        0.0055907133  -0.0034059627   13.669255     -103641.77      544.35608      104.08868      108.41779      437.05645      4932210.6      27.30422       127398.73    
     31800   304.09128      0.0159        -0.0023363636   0.004346596    13.775605     -103647.12      552.30102      104.11196      108.44874      437.07797      4934964.5      27.264369      127219.04    
     31900   300.90778      0.01595       -0.0055290089   0.00046089139  13.780094     -103644.29      546.51903      104.15651      108.33112      437.09948      4931964.7      27.262233      127215.34    
     32000   299.60739      0.016         -0.00097324028  0.0034819726   13.868053     -103647.15      544.15723      104.25082      108.31194      437.12099      4935799.2      27.248008      127155.22    
     32100   296.22939      0.01605       -0.0011197629   0.005634318    13.878329     -103643.65      538.02199      104.30703      108.18462      437.1425       4932898        27.295945      127385.19    
     32200   302.1132       0.0161         0.00018367791 -0.0074942349   13.905853     -103645.56      548.70836      104.49543      108.09684      437.16402      4938041.2      27.281133      127322.33    
     32300   301.54402      0.01615        0.0049940191  -0.0025265269   13.973443     -103636.65      547.6746       104.49737      108.05839      437.18553      4936619.2      27.298669      127410.44    
     32400   304.17059      0.0162         0.0019302393   0.0011048944   13.969028     -103642.33      552.44506      104.56734      107.99503      437.20704      4937271        27.29043       127378.26    
     32500   300.88081      0.01625       -0.0057443798   0.00029969588  14.093706     -103643.56      546.47004      104.69457      107.99718      437.22856      4943620.1      27.198979      126957.66    
     32600   300.48061      0.0163        -0.0041701115   0.0029773063   14.15313      -103645.86      545.7432       104.76328      107.79406      437.25007      4937803.3      27.116222      126577.6     
     32700   296.05256      0.01635        0.0067482189   0.0011049464   14.145555     -103636.8       537.7008       104.93374      107.75044      437.27158      4944079.9      27.200294      126976.29    
     32800   299.42472      0.0164         0.00060774139 -0.0026529112   14.279286     -103638.07      543.82544      105.02886      107.63205      437.2931       4943367.3      27.109852      126560.32    
     32900   302.2876       0.01645        0.0052497342  -0.011646645    14.238144     -103632.96      549.02511      105.03814      107.49572      437.31461      4937785.2      27.200998      126992.07    
     33000   305.85178      0.0165        -0.000244177    0.012660131    14.304029     -103637.05      555.49849      105.08597      107.57326      437.33612      4943839.9      27.181358      126906.62    
     33100   303.10245      0.01655       -0.0096773072  -0.0011742184   14.307097     -103636.04      550.50507      105.16288      107.4389       437.35763      4941522.4      27.210879      127050.7     
     33200   300.53984      0.0166         0.001292638    0.00099825081  14.369544     -103636.51      545.85076      105.23549      107.35791      437.37915      4941449.5      27.196215      126988.48    
     33300   301.56457      0.01665        0.0086261266   0.0028704779   14.414196     -103641.74      547.71191      105.34341      107.30956      437.40066      4944532.5      27.200679      127015.57    
     33400   296.94073      0.0167        -0.0097935929  -0.014404213    14.39958      -103634.68      539.31394      105.40802      107.2685       437.42217      4945915.3      27.272968      127359.39    
     33500   299.25387      0.01675        0.0083952917   0.0083221387   14.45025      -103633.34      543.51515      105.37652      107.21879      437.44369      4942388.8      27.304504      127512.93    
     33600   298.4732       0.0168        -0.0032553021   0.0049879833   14.453156     -103623.94      542.09726      105.42099      107.23038      437.4652       4945252.1      27.308196      127536.44    
     33700   300.42711      0.01685       -0.0027127901  -0.0048047865   14.514727     -103628.69      545.64602      105.48644      107.16618      437.48671      4945602.7      27.343161      127706.02    
     33800   299.62398      0.0169         0.0062222419   0.0084387827   14.556134     -103633.68      544.18735      105.42919      107.13293      437.50822      4941628.3      27.34178       127705.85    
     33900   298.00656      0.01695       -0.0047988676  -0.003480118    14.603591     -103633.11      541.24974      105.558        107.199        437.52974      4950960.4      27.324685      127632.28    
[...]
    991200   302.13599      0.4956         0.0014576822   0.0029028818   0.0083038869  -103122.37      548.74976      28.011539      23.129167      643.47291      416895.51      25.923246      178082.35    
    991300   301.8419       0.49565        0.0061768376   0.00085464958  0.015608229   -103122.1       548.21562      28.012944      23.145846      643.49442      417231.03      26.206801      180036.28    
    991400   300.60797      0.4957        -0.0032028635   0.0042706841  -0.041745201   -103124.33      545.9745       28.030819      23.153796      643.51593      417654.63      26.062149      179048.53    
    991500   300.0227       0.49575       -0.0033294566  -0.00577905    -0.035098784   -103128.13      544.91152      28.04224       23.152529      643.53745      417815.9       25.991028      178565.89    
    991600   296.73312      0.4958        -0.0066142624  -0.00095117808 -0.066709787   -103130.14      538.93687      28.03842       23.144709      643.55896      417631.84      25.947103      178270.08    
    991700   291.60708      0.49585        0.0079331009   0.0008108934  -0.093453618   -103125.13      529.62678      28.037308      23.142021      643.58047      417580.72      26.032663      178863.9     
    991800   297.29854      0.4959         0.00021843282  0.0065378319  -0.11737875    -103125.44      539.9638       28.040329      23.13172       643.60198      417453.79      25.996562      178621.82    
    991900   298.74166      0.49595        0.0019426032  -0.00099889227 -0.10938867    -103123.04      542.58486      28.046772      23.137287      643.6235       417664.16      26.134675      179576.8     
    992000   299.99687      0.496         -0.0036306047   0.00098572909 -0.078611598   -103120.95      544.86461      28.054365      23.143007      643.64501      417894.48      25.968487      178440.85    
    992100   300.32055      0.49605       -0.0025222018  -0.0073998668  -0.096749885   -103118.27      545.45249      28.025421      23.154859      643.66652      417691.09      26.048214      178994.68    
    992200   299.07923      0.4961         0.0012133213   0.0015283384  -0.087731629   -103118.05      543.19796      27.992848      23.158417      643.68804      417283.67      26.001426      178679.13    
    992300   299.15826      0.49615        0.0042079075   0.0019788897  -0.081896814   -103127.1       543.34149      27.985842      23.169738      643.70955      417397.11      26.109713      179429.27    
    992400   299.75398      0.4962         0.0016193361   0.0036116732  -0.10853927    -103129.66      544.42346      27.982167      23.169517      643.73106      417352.28      26.086606      179276.46    
    992500   298.60747      0.49625       -0.0023769637  -0.0029320662  -0.14130699    -103123.2       542.34113      27.998105      23.173296      643.75257      417672.06      25.960517      178415.9     
    992600   299.89377      0.4963        -0.0036071849  -0.0058129204  -0.14702246    -103120.95      544.67735      27.963723      23.178893      643.77409      417273.87      26.153857      179750.65    
    992700   301.15594      0.49635        0.0013885325   0.0029604292  -0.092445237   -103123.57      546.96975      27.941969      23.186592      643.7956       417101.67      25.897029      177991.46    
    992800   298.68041      0.4964         0.0035582993   0.0034030587   0.0090279372  -103120.37      542.4736       27.923662      23.199239      643.81711      417069.7       26.086708      179301.13    
    992900   301.56648      0.49645        0.0033308997   0.0022102329  -0.038948677   -103124.99      547.71538      27.936654      23.230422      643.83863      417838.56      25.903542      178048.13    
    993000   301.3849       0.4965        -0.0038217368  -0.0055916962  -0.048091815   -103123.48      547.38559      27.920395      23.258289      643.86014      418110.29      26.068544      179188.26    
    993100   300.08439      0.49655       -0.0068844791  -0.0018858354   0.028648684   -103120.88      545.02357      27.898516      23.277693      643.88165      418145.17      25.918126      178160.28    
    993200   300.78844      0.4966         0.0029202679   0.0026714666   0.010534168   -103123.79      546.30228      27.891036      23.275009      643.90316      417998.82      25.986695      178637.59    
    993300   297.1474       0.49665        0.0028563738   0.006014279    0.032425459   -103122.94      539.68931      27.884013      23.282636      643.92468      418044.47      26.008874      178796.03    
    993400   296.8845       0.4967         0.0039928547  -0.0032340846   0.033698419   -103125.56      539.2118       27.898241      23.281114      643.94619      418244.42      25.900365      178056.04    
    993500   301.19492      0.49675       -0.0037130574  -6.2746315e-05  0.00072784512 -103125.71      547.04054      27.908956      23.282174      643.9677       418438.09      26.131069      179648.05    
    993600   303.54307      0.4968        -0.0069032554  -0.002333732    0.021491027   -103123.96      551.30533      27.922504      23.240756      643.98922      417910.42      25.930164      178272.8     
    993700   301.9984       0.49685        0.0031880852   0.0011552494   0.014611056   -103122.79      548.49985      27.918865      23.214495      644.01073      417397.75      25.860027      177796.54    
    993800   299.48623      0.4969         0.0042137569   0.0061490143   0.0013079754  -103124.09      543.93716      27.945475      23.200281      644.03224      417553.72      26.000872      178770.87    
    993900   297.55892      0.49695        0.002972612   -0.0026347727  -0.017056534   -103123.57      540.43671      27.967742      23.179524      644.05376      417526.49      25.980181      178634.58    
    994000   302.91023      0.497         -0.0030191378  -0.0028675103  -0.019251629   -103127.41      550.15594      27.979546      23.175771      644.07527      417649.03      25.942267      178379.85    
    994100   301.68311      0.49705       -0.0027103552  -0.0039570884  -0.048571497   -103116.1       547.9272       27.977499      23.170155      644.09678      417531.23      26.040519      179061.41    
    994200   301.11156      0.4971         0.0017505619   0.0042708928  -0.0099059863  -103117.11      546.88914      27.970323      23.15672       644.11829      417196.02      25.850613      177761.5     
    994300   301.9496       0.49715        0.0018297513   0.0015222681  -0.032635349   -103124.44      548.41122      27.980232      23.156682      644.13981      417357.08      25.943166      178403.9     
    994400   299.60775      0.4972         0.0014061157   0.005375826   -0.014112938   -103124.86      544.15787      28.01317       23.131266      644.16132      417403.7       26.065708      179252.58    
    994500   300.30783      0.49725       -0.0033381423  -0.0070153327   0.00070084265 -103125.84      545.42938      28.035346      23.127659      644.18283      417682.94      25.936868      178372.51    
    994600   298.60566      0.4973        -0.0016859903  -0.002051852    0.039124099   -103121.07      542.33784      28.023333      23.107274      644.20435      417149.9       26.02738       179000.95    
    994700   301.31941      0.49735        0.0020552284  -0.00049813016 -0.011466601   -103119.35      547.26664      28.018954      23.118155      644.22586      417295.05      25.957476      178526.16    
    994800   305.11466      0.4974        -0.00022634781  0.0082453576  -0.017172314   -103118.94      554.15971      28.026617      23.106355      644.24737      417210.06      25.939228      178406.61    
    994900   301.54373      0.49745        0.0029371936  -0.0012362731   0.031011742   -103117.58      547.67407      28.050683      23.104668      644.26888      417551.76      25.989629      178759.23    
    995000   300.93144      0.4975        -0.0028104478  -0.0019194098  -0.001812831   -103123.27      546.562        28.068736      23.099072      644.2904       417733.25      25.963605      178586.2     
    995100   297.20246      0.49755       -0.0010118803  -0.0038499941   0.034494965   -103118.96      539.7893       28.077688      23.093456      644.31191      417778.84      26.030621      179053.14    
    995200   299.82172      0.4976         0.00057037935 -0.0010283119  -0.018667925   -103124.59      544.54648      28.074192      23.077962      644.33342      417460.48      25.91477       178262.2     
    995300   301.25422      0.49765        0.00091959747  0.0014772793  -0.057133067   -103126.95      547.14824      28.071203      23.074887      644.35494      417374.37      26.043315      179152.41    
    995400   297.84437      0.4977         0.0055385059   0.0090145034  -0.032614731   -103120.3       540.95517      28.087262      23.074063      644.37645      417612.17      26.04029       179137.59    
    995500   302.25389      0.49775       -0.0054926798  -0.0073801898  -0.032104882   -103124.4       548.96388      28.098006      23.075127      644.39796      417805.12      25.984064      178756.76    
    995600   300.78958      0.4978        -0.0016107387   0.0002371112   0.022618714   -103117.38      546.30435      28.100321      23.049352      644.41947      417386.75      26.301384      180945.8     
    995700   302.63644      0.49785        0.001901762   -0.0066641442   0.028799376   -103121.13      549.65869      28.076952      23.062313      644.44099      417288.08      26.128778      179764.32    
    995800   296.77469      0.4979        -0.00110197     0.0074864864   0.058878227   -103119.42      539.01238      28.084882      23.055634      644.4625       417298.99      26.135183      179814.39    
    995900   294.2958       0.49795        0.0016413165   0.00089650878  0.032883868   -103118.46      534.51013      28.082697      23.056577      644.48401      417297.52      26.002293      178906.06    
    996000   299.95107      0.498         -0.0012650103  -0.00048951431  0.033805928   -103126.7       544.78142      28.085875      23.046987      644.50553      417185.08      26.241423      180557.39    
    996100   302.45974      0.49805        0.0025793289  -0.0063111259   0.069150008   -103126.37      549.33776      28.081677      23.052601      644.52704      417238.26      26.090711      179526.39    
    996200   299.13588      0.4981        -0.0034890661   0.0050923519   0.068455294   -103117.6       543.30084      28.084713      23.062942      644.54855      417484.46      26.134428      179833.21    
    996300   301.66784      0.49815       -0.0031596237   0.0029111721   0.028639694   -103115.37      547.89948      28.087558      23.04198       644.57007      417161.2       26.100488      179605.65    
    996400   304.56415      0.4982         0.003624287   -0.0014712148   0.017470959   -103118.7       553.15985      28.105979      23.012965      644.59158      416923.06      25.940445      178510.3     
    996500   299.25279      0.49825        0.0052878557  -0.0037207921   0.056312126   -103118.51      543.51317      28.115291      23.008346      644.61309      416991.41      25.944281      178542.66    
    996600   298.74971      0.4983        -0.0032187559   0.00071937943  0.077567899   -103122.13      542.59947      28.101121      23.027         644.6346       417133.07      25.951031      178595.08    
    996700   301.08612      0.49835       -0.0029382286   0.0030395024   0.066186573   -103128.61      546.84293      28.097535      23.030794      644.65612      417162.47      25.894742      178213.64    
    996800   299.74599      0.4984         0.00015682479 -0.0001087961   0.031895469   -103127.77      544.40895      28.095519      23.029106      644.67763      417115.89      26.002368      178960.32    
    996900   300.82494      0.49845        0.0057999204  -0.0026377773   0.038165718   -103128.46      546.36857      28.11822       23.009753      644.69914      417116.02      25.978094      178799.22    
    997000   300.62132      0.4985         0.0016038847  -0.00041136471  0.04450579    -103119.41      545.99876      28.123313      23.0363        644.72066      417686.83      26.123965      179809.21    
    997100   300.61578      0.49855       -0.0086411699   0.0043800126   0.067432573   -103116.93      545.98869      28.144123      23.021221      644.74217      417736.24      25.909494      178338.97    
    997200   298.73497      0.4986         0.0011199228  -0.001571452    0.046529333   -103117.77      542.5727       28.150713      23.005892      644.76368      417569.76      26.205645      180383.44    
    997300   299.30203      0.49865        0.0021489668  -0.0010657215   0.017001871   -103126.5       543.60262      28.165679      22.99693       644.78519      417642.94      25.92302       178443.98    
    997400   300.3796       0.4987         0.0049929698  -0.0027372654   0.025445159   -103132.6       545.55974      28.149649      23.024238      644.80671      417914.85      26.188904      180280.24    
    997500   298.67668      0.49875       -0.0045601298   0.0075429826   0.004579572   -103126.69      542.46682      28.139636      23.049693      644.82822      418242.02      25.907513      178349.13    
    997600   299.88802      0.4988        -0.0025105589  -0.002733495    0.038265924   -103123.55      544.66691      28.133629      23.044217      644.84973      418067.34      26.195801      180339.74    
    997700   301.93642      0.49885        0.002133455   -0.0028723033   0.018704167   -103123.18      548.38728      28.133263      23.032981      644.87125      417872         25.980004      178860.11    
    997800   298.64922      0.4989         0.0015035409  -0.0030764232   0.005620422   -103116.68      542.41695      28.096158      23.064591      644.89276      417907.51      26.040749      179284.29    
    997900   297.35178      0.49895       -0.0015036029   0.010262061    0.03128117    -103119.68      540.06051      28.081337      23.071013      644.91427      417817.31      25.873283      178137.26    
    998000   297.79262      0.499          0.0014374445  -0.0024935801   0.043388625   -103128.21      540.86117      28.089632      23.078177      644.93578      418084.46      25.96063       178744.61    
    998100   298.09823      0.49905       -0.002360346   -0.0017934869   0.014195777   -103126.47      541.41622      28.073787      23.072345      644.9573       417756.98      26.099041      179703.59    
    998200   302.39049      0.4991         0.0022938587  -0.0061497569  -0.017721027   -103126.68      549.21198      28.055097      23.084204      644.97881      417707.36      25.874009      178160.09    
    998300   299.40515      0.49915       -0.0013154853   0.0021809501  -0.037817761   -103120.96      543.7899       28.040342      23.073801      645.00032      417313.45      25.998857      179025.72    
    998400   299.30555      0.4992         0.0017122452   0.0039863721  -0.0096397824  -103121.9       543.60901      28.048425      23.057949      645.02184      417160.87      25.936955      178605.43    
    998500   300.62446      0.49925        0.0014926051   0.003755834   -0.011070291   -103126.42      546.00446      28.064657      23.051141      645.04335      417292.98      25.909523      178422.48    
    998600   299.94147      0.4993        -0.00064446173 -0.0075510008   0.0021026538  -103132.2       544.76398      28.072774      23.048705      645.06486      417383.47      26.136821      179993.74    
    998700   294.5174       0.49935       -0.0033391741  -0.00081022122  0.02121926    -103124.26      534.91261      28.069847      23.065172      645.08638      417652.04      25.960591      178786.08    
    998800   299.283        0.4994         0.0013651521   0.00052052738  0.030706668   -103123.17      543.56805      28.072549      23.04985       645.10789      417428.71      25.995528      179032.65    
    998900   297.90914      0.49945        0.0022306562   0.001201086   -0.023682115   -103117.2       541.0728       28.083395      23.054217      645.1294       417683.02      25.869633      178171.55    
    999000   297.30528      0.4995         0.0058774596  -2.2871812e-05 -0.046752702   -103117.06      539.97605      28.077984      23.067615      645.15091      417859.18      26.161465      180187.48    
    999100   299.45015      0.49955       -0.0054301747   0.001896571    0.016446933   -103124.36      543.87164      28.094012      23.072581      645.17243      418201.66      25.946121      178710.26    
    999200   297.64618      0.4996        -0.0043246003  -0.0018302797   0.063279592   -103126.98      540.59519      28.101074      23.067293      645.19394      418224.85      26.026173      179267.61    
    999300   296.96115      0.49965       -0.00090846004  0.0012983495   0.10260032    -103127.66      539.35102      28.091797      23.05792       645.21545      417930.83      26.062676      179525.03    
    999400   298.95918      0.4997         0.0029117365  -0.00019119772  0.088353778   -103120.11      542.97991      28.099463      23.039971      645.23697      417733.38      26.056382      179487.66    
    999500   302.56052      0.49975        0.0043571049   0.0018248802   0.065675642   -103123.1       549.52079      28.123412      23.009857      645.25848      417556.88      26.019905      179242.37    
    999600   297.45673      0.4998         0.00076993885 -0.0026289164   0.039434707   -103117.29      540.25111      28.137648      23.007809      645.27999      417745.01      26.055439      179493.14    
    999700   300.69045      0.49985       -0.0057445134  -0.0015601846   0.027381273   -103127.98      546.1243       28.119293      22.999424      645.3015       417334.26      25.977124      178959.6     
    999800   298.8973       0.4999         5.1918343e-05 -0.00016582601  0.012696316   -103129.77      542.86752      28.104625      23.008557      645.32302      417296.11      26.024004      179288.54    
    999900   297.77515      0.49995        0.00079594656  0.0034436748   0.02269267    -103128.02      540.82943      28.096887      23.019359      645.34453      417390.99      25.970318      178924.64    
   1000000   302.70366      0.5            0.0023776905  -0.0016056464   0.0015246571  -103125.71      549.78078      28.09505       23.022429      645.36604      417433.27      25.952571      178808.33    
   1000100   302.33492      0.50005        0.00048912748 -2.7446759e-06 -0.077616285   -103121.06      549.11104      28.093439      23.048503      645.38756      417896.01      26.0962        179803.9     
Loop time of 5856.81 on 320 procs for 1000000 steps with 14052 atoms

Performance: 7.376 ns/day, 3.254 hours/ns, 170.741 timesteps/s
99.8% CPU use with 320 MPI tasks x 1 OpenMP threads

MPI task timing breakdown:
Section |  min time  |  avg time  |  max time  |%varavg| %total
---------------------------------------------------------------
Pair    | 247.06     | 1338.3     | 2978.9     |1889.9 | 22.85
Neigh   | 4.6761     | 57.656     | 88.676     | 345.4 |  0.98
Comm    | 219.87     | 1825.5     | 3277.6     |1869.2 | 31.17
Output  | 2.7085     | 2.7505     | 3.2068     |   1.8 |  0.05
Modify  | 1370.2     | 2596.5     | 5306.4     |2232.1 | 44.33
Other   |            | 36.03      |            |       |  0.62

Nlocal:        43.9125 ave         159 max           0 min
Histogram: 157 17 12 20 19 26 29 15 16 9
Nghost:        1751.35 ave        3426 max           0 min
Histogram: 96 0 0 10 12 10 48 70 56 18
Neighs:              0 ave           0 max           0 min
Histogram: 320 0 0 0 0 0 0 0 0 0
FullNghs:      18380.3 ave       69911 max           0 min
Histogram: 164 11 21 15 21 27 16 21 22 2

Total # of neighbors = 5881694
Ave neighs/atom = 418.56633
Neighbor list builds = 6662
Dangerous builds = 0


Total wall time: 1:40:09
