

##---------------INITIALIZATION-------------------------------

units          metal
dimension 	    3
boundary       p p p
atom_style 	atomic
newton 		on


##---------------ATOM DEFINITION------------------------------

read_data 	CNT_2_39_3.13.dat
Reading data file ...
  orthogonal box = (-17.6544 -17.6543 0.301056) to (17.6544 17.6543 340.94)
  3 by 3 by 32 MPI processor grid
  reading atoms ...
  12824 atoms
  read_data CPU = 0.066 seconds


##---------------FORCE FIELDS---------------------------------
#Set the formula(s) LAMMPS uses to compute pairwise interactions. In LAMMPS, pair potentials are defined between pairs #of atoms that are within a cutoff distance and the set of active interactions typically changes over time

pair_style 	airebo 3.0

#Specify the pairwise force field coefficients for one or more pairs of atom types. The number and meaning of the coefficients depends on the pair style.

pair_coeff     * * /ascldap/users/bcma/CH.airebo C
Reading airebo potential file /ascldap/users/bcma/CH.airebo with DATE: 2011-10-25


##---------------SETTINGS-------------------------------------

timestep 	0.0005
variable   ts equal 0.0005


##---------------COMPUTES-----stresses in 3 directions and min/max on x and z atom coordinates --------------------------

compute    1 all stress/atom NULL
compute    2 all reduce sum c_1[1] c_1[2] c_1[3]
compute    3 all property/atom x y # true atoms position
compute    4 all reduce min c_3[1] c_3[2]
compute    5 all reduce max c_3[1] c_3[2]


variable   Lx equal lx
variable   Ly equal ly
variable   Lz equal lz
variable   Vol equal vol
variable   thickn equal 3.4
#making the damp parameter timestep dependent
fix		1 all npt temp 300 300 0.05 iso 0 0 0.05 #$(100.0*dt)x 0 0 0.5 y 0 0 0.5 z 0 0 0.5
thermo 	2000
##---------------RELAXATION--------------------------------------

run            50000
Neighbor list info ...
  update every 1 steps, delay 10 steps, check yes
  max neighbors/atom: 2000, page size: 100000
  master list distance cutoff = 12.2
  ghost atom cutoff = 12.2
  binsize = 6.1, bins = 6 6 56
  1 neighbor lists, perpetual/occasional/extra = 1 0 0
  (1) pair airebo, perpetual
      attributes: full, newton on, ghost
      pair build: full/bin/ghost
      stencil: full/ghost/bin/3d
      bin: standard
Per MPI rank memory allocation (min/avg/max) = 3.827 | 3.828 | 3.829 Mbytes
   Step          Temp          E_pair         E_mol          TotEng         Press          Volume    
         0   0             -95049.069      0             -95049.069     -31536.494      424676.03    
      2000   293.52604     -95012.221      0             -94525.701      49.294439      387156.67    
      4000   196.3636      -94203.151      0             -93877.677      20.001323      402870.32    
      6000   368.06332     -93968.755      0             -93358.689      263.38195      393276.9     
      8000   333.31563     -94826.771      0             -94274.3        1.4906411      404246.02    
     10000   296.26212     -94796.126      0             -94305.071     -41.740434      398834.7     
     12000   313.03508     -94809.464      0             -94290.607      173.74609      405550.1     
     14000   285.69673     -94859.687      0             -94386.144      579.39279      399327.38    
     16000   306.27682     -94728.566      0             -94220.911      123.08803      395130.24    
     18000   302.75001     -94803.464      0             -94301.655      481.36382      401146.49    
     20000   299.398       -94791.495      0             -94295.242      126.68396      401555.44    
     22000   302.43748     -94786.23       0             -94284.939      89.51416       402083.57    
     24000   303.43153     -94776.266      0             -94273.328      327.98382      401153.09    
     26000   300.42829     -94773.587      0             -94275.626      149.47905      402346.18    
     28000   302.57247     -94788.67       0             -94287.155      545.55429      402222.13    
     30000   298.62157     -94785.106      0             -94290.14       457.70078      402049.77    
     32000   302.1307      -94787.1        0             -94286.318      486.57393      402436.15    
     34000   300.40499     -94781.853      0             -94283.931      48.932158      402415.84    
     36000   298.65897     -94777.752      0             -94282.724     -10.70017       402585.66    
     38000   293.35112     -94784.86       0             -94298.63      -358.45584      402662.86    
     40000   302.76328     -94784.658      0             -94282.827     -364.12846      403012.78    
     42000   298.44133     -94778.749      0             -94284.081     -77.234377      402607.52    
     44000   299.03432     -94784.104      0             -94288.454     -16.946525      403570.54    
     46000   304.30998     -94788.303      0             -94283.909     -40.28203       402951.1     
     48000   297.14342     -94783.979      0             -94291.463     -88.089719      402642.23    
     50000   301.0779      -94788.531      0             -94289.494      113.86945      402983.38    
Loop time of 90.1987 on 288 procs for 50000 steps with 12824 atoms

Performance: 23.947 ns/day, 1.002 hours/ns, 554.332 timesteps/s
99.7% CPU use with 288 MPI tasks x 1 OpenMP threads

MPI task timing breakdown:
Section |  min time  |  avg time  |  max time  |%varavg| %total
---------------------------------------------------------------
Pair    | 12.14      | 48.194     | 58.557     | 192.3 | 53.43
Neigh   | 2.0935     | 2.4195     | 2.6802     |   8.2 |  2.68
Comm    | 16.966     | 27.425     | 62.337     | 242.6 | 30.40
Output  | 0.0044881  | 0.0045661  | 0.005092   |   0.1 |  0.01
Modify  | 8.6825     | 10.579     | 13.247     |  30.7 | 11.73
Other   |            | 1.577      |            |       |  1.75

Nlocal:        44.5278 ave          55 max           0 min
Histogram: 32 0 0 0 0 0 0 0 69 187
Nghost:        1343.56 ave        1373 max        1318 min
Histogram: 35 74 27 24 0 0 3 25 83 17
Neighs:              0 ave           0 max           0 min
Histogram: 288 0 0 0 0 0 0 0 0 0
FullNghs:      13446.7 ave       17717 max           0 min
Histogram: 32 0 0 0 0 0 3 93 43 117

Total # of neighbors = 3872648
Ave neighs/atom = 301.9844
Neighbor list builds = 497
Dangerous builds = 4


##---------------DEFORMATION--------------------------------------
unfix              1
reset_timestep     0
fix		1 all npt temp 300 300 0.05 x 0 0 0.05 y 0 0 0.05 #$(100.0*dt)
fix        2 all ave/time 1 100 100 c_2[1] c_2[2] c_2[3]
fix        3 all ave/time 1 100 100 v_Lx v_Ly v_Lz v_Vol
fix        4 all  ave/time 1 100 100 c_4[1] c_4[2]
fix        5 all ave/time 1 100 100 c_5[1] c_5[2]
variable   srate equal 1.0e9
variable   srate1 equal "v_srate / 1.0e12"
fix		6 all deform 1 z erate ${srate1} units box remap x
fix		6 all deform 1 z erate 0.001 units box remap x
run            100
Per MPI rank memory allocation (min/avg/max) = 3.827 | 3.83 | 3.831 Mbytes
   Step          Temp          E_pair         E_mol          TotEng         Press          Volume    
         0   301.0779      -94788.531      0             -94289.494      113.86945      402983.38    
       100   299.92292     -94787.376      0             -94290.253      2193.0644      401159.4     
Loop time of 0.259194 on 288 procs for 100 steps with 12824 atoms

Performance: 16.667 ns/day, 1.440 hours/ns, 385.812 timesteps/s
99.5% CPU use with 288 MPI tasks x 1 OpenMP threads

MPI task timing breakdown:
Section |  min time  |  avg time  |  max time  |%varavg| %total
---------------------------------------------------------------
Pair    | 0.017088   | 0.11679    | 0.14779    |  10.8 | 45.06
Neigh   | 0          | 0          | 0          |   0.0 |  0.00
Comm    | 0.022557   | 0.054832   | 0.15474    |  15.4 | 21.15
Output  | 0.00013652 | 0.00016096 | 0.00027923 |   0.0 |  0.06
Modify  | 0.079923   | 0.084337   | 0.093418   |   0.8 | 32.54
Other   |            | 0.003069   |            |       |  1.18

Nlocal:        44.5278 ave          55 max           0 min
Histogram: 32 0 0 0 0 0 0 0 61 195
Nghost:        1344.07 ave        1377 max        1319 min
Histogram: 51 64 35 10 0 0 19 62 40 7
Neighs:              0 ave           0 max           0 min
Histogram: 288 0 0 0 0 0 0 0 0 0
FullNghs:      13448.6 ave       17149 max           0 min
Histogram: 32 0 0 0 0 0 0 60 69 127

Total # of neighbors = 3873184
Ave neighs/atom = 302.0262
Neighbor list builds = 0
Dangerous builds = 0
##---------------THERMO-OUTPUTS--------------------------------------
variable cntdiameter equal ((f_5[1]-f_4[1])+(f_5[2]-f_4[2]))/2
#actual volume of cnt
variable   CorVol equal 3.14*v_cntdiameter*v_thickn*f_3[3]
#convertion factor of stress from barr to GPA
variable   ConvoFac equal 1/1.0e4
variable   sigmaxx equal f_2[1]*v_ConvoFac/v_CorVol
variable   sigmayy equal f_2[2]*v_ConvoFac/v_CorVol
variable   sigmazz equal f_2[3]*v_ConvoFac/v_CorVol
variable   StrainPerTs equal v_srate1*v_ts
variable   strain equal v_StrainPerTs*step
thermo 	100
thermo_style custom step temp v_strain v_sigmaxx v_sigmayy v_sigmazz pe ke lx ly lz vol v_cntdiameter v_CorVol
thermo_modify lost warn


##---------------DEFORMATION--------------------------------------
dump           1 all atom 5000 /ascldap/users/bcma/4thCNTRun/CNT_2_39_3.13/CNT_2_39_3.13.lammpstrj
run            1000000
Per MPI rank memory allocation (min/avg/max) = 4.827 | 4.83 | 4.831 Mbytes
   Step          Temp         v_strain      v_sigmaxx      v_sigmayy      v_sigmazz        PotEng         KinEng           Lx             Ly             Lz           Volume     v_cntdiameter     v_CorVol   
       100   299.92292      5e-05         -0.0071078681  -0.0099458329  -1.9256887     -94787.376      497.12309      34.597878      34.637115      334.75402      401159.4       32.671021      116757.86    
       200   300.22234      0.0001         0.0045913012   0.009634529   -1.8259821     -94787.138      497.61939      34.573049      34.595708      334.77076      400412.32      32.587094      116463.75    
       300   298.88195      0.00015        0.0037843304  -0.00049357579 -1.7821792     -94784.529      495.39769      34.490829      34.553386      334.7875       398991.34      32.684887      116819.09    
       400   299.71364      0.0002        -0.0042067742   0.00031838487 -1.6843708     -94788.049      496.77621      34.432646      34.514889      334.80424      397894.39      32.624559      116609.3     
       500   300.74481      0.00025       -0.0095194701  -0.010317668   -1.6778985     -94796.074      498.48537      34.349066      34.419162      334.82097      395847.47      32.512832      116215.77    
       600   299.60691      0.0003         0.012399123    0.015009551   -1.6322433     -94800.566      496.5993       34.260271      34.365747      334.83771      394231.16      32.504712      116192.55    
       700   300.52053      0.00035        0.00076459625 -0.0026941558  -1.6730687     -94806.297      498.11363      34.219103      34.260067      334.85445      392566.21      32.449249      116000.09    
       800   301.19644      0.0004        -0.0021027194  -0.0026701883  -1.5625312     -94809.492      499.23395      34.114969      34.1621        334.87119      390271.94      32.394055      115808.57    
       900   302.37145      0.00045       -0.0044409282   0.00047184455 -1.5205802     -94814.833      501.18154      34.022524      34.017587      334.88792      387587.29      32.237364      115254.16    
      1000   303.23541      0.0005         0.0094835054   0.011213091   -1.4749071     -94821.896      502.61355      33.925895      33.907098      334.90466      385250.43      32.182648      115064.29    
      1100   302.56809      0.00055       -0.0071869456  -0.0071162499  -1.4536973     -94824.655      501.50747      33.859477      33.760201      334.9214       382849.57      32.083979      114717.25    
      1200   300.1562       0.0006         0.0013883434  -0.0051437311  -1.390815      -94826.918      497.50976      33.727828      33.592533      334.93814      379485.98      31.992501      114395.89    
      1300   302.56913      0.00065        0.0059124992   0.0041854577  -1.3940318     -94839.416      501.50919      33.597487      33.431622      334.95487      376227.51      31.885443      114018.77    
      1400   303.05575      0.0007        -0.0024123682   0.0054665392  -1.3059641     -94846.301      502.31576      33.462903      33.231937      334.97161      372500.86      31.740803      113507.23    
      1500   301.55724      0.00075        0.0017205353  -0.011685043   -1.2441606     -94850.44       499.83197      33.281829      33.040176      334.98835      368365.75      31.563527      112878.92    
      1600   302.35682      0.0008        -0.0011832087   0.011699253   -1.232312      -94858.114      501.15729      33.079171      32.806483      335.00509      363551.3       31.395739      112284.48    
      1700   299.8331       0.00085        0.0082241419   0.0016978917  -1.1891087     -94860.682      496.97422      32.861762      32.574709      335.02183      358628.24      31.250008      111768.87    
      1800   300.51515      0.0009        -0.0006972046   0.0029186631  -1.1433367     -94868.707      498.10472      32.635886      32.344678      335.03856      353665.78      31.073242      111142.2     
      1900   301.39246      0.00095       -0.0018019289  -0.0061406279  -1.055817      -94877.32       499.55886      32.379862      32.111817      335.0553       348382.53      30.760714      110029.85    
      2000   303.34673      0.001         -0.0074289738  -0.010714787   -1.0128963     -94887.246      502.79806      32.123957      31.872928      335.07204      343075.1       30.471808      109001.89    
      2100   299.51144      0.00105        0.0046678638   0.0042091175  -0.9486385     -94887.019      496.44107      31.860794      31.6256        335.08878      337641.06      30.225199      108125.14    
      2200   301.83361      0.0011         0.00027270038  0.0065105233  -0.93616968    -94896.053      500.29006      31.61842       31.390517      335.10551      332598.44      29.977562      107244.61    
      2300   301.16083      0.00115        0.00076055704  0.0056440596  -0.92101095    -94900.684      499.17493      31.321196      31.134823      335.12225      326804.49      29.764262      106486.85    
      2400   302.32305      0.0012         0.0049408506  -0.0017900747  -0.84279587    -94905.797      501.10132      31.037648      30.885863      335.13899      321272.46      29.465385      105422.83    
      2500   297.06941      0.00125        0.0090272811   0.0017893946  -0.77433184    -94897.545      492.3934       30.726353      30.615702      335.15573      315283.97      29.142511      104272.85    
      2600   297.0459       0.0013         0.0042024755   0.0092496113  -0.71139289    -94892.239      492.35443      30.445758      30.35778       335.17247      309788.38      28.810215      103089.03    
      2700   298.01636      0.00135       -0.0020447605   0.0023797067  -0.6179659     -94888.072      493.96296      30.173235      30.095248      335.1892       304375.6       28.609731      102376.77    
      2800   295.43403      0.0014         0.00074833395  0.0043725423  -0.49389516    -94875.84       489.68274      29.943383      29.859556      335.20594      299706.34      28.354394      101468.14    
      2900   292.812        0.00145       -0.00056900895 -0.001281221   -0.47109603    -94859.842      485.33672      29.775248      29.655284      335.22268      295999.42      28.166897      100802.2     
      3000   293.37928      0.0015         0.0062978816  -0.0078766499  -0.34851601    -94847.271      486.27699      29.616636      29.519545      335.23942      293089.63      28.033359      100329.31    
      3100   295.37864      0.00155       -0.010788434   -0.0045500262  -0.28275217    -94835.045      489.59094      29.52383       29.489059      335.25615      291884.06      27.8402        99642.986    
      3200   299.58467      0.0016        -0.0056522987   0.0044914197  -0.20369249    -94828.348      496.56244      29.522642      29.494606      335.27289      291941.78      27.771755      99402.975    
      3300   304.78         0.00165        0.0078885915  -0.0069593164  -0.17026448    -94831.109      505.17371      29.595038      29.59201       335.28963      293638.84      27.758494      99360.47     
      3400   308.02457      0.0017        -0.0055159162   0.0050462833  -0.16035337    -94844.057      510.5516       29.733468      29.76575       335.30637      296759.2       27.918124      99936.847    
      3500   307.65456      0.00175       -0.0032482504   0.0010571289  -0.17040042    -94859.589      509.93831      29.961706      29.959096      335.3231       300994.62      28.064392      100465.45    
      3600   307.3607       0.0018         0.0019521892  -0.0099880033  -0.17292204    -94875.632      509.45122      30.205263      30.187918      335.33984      305774.28      28.300312      101315.06    
      3700   303.06556      0.00185       -0.011034923   -0.004771994   -0.13489908    -94883.52       502.33203      30.467801      30.432246      335.35658      310943.83      28.576592      102309.25    
      3800   301.59737      0.0019        -0.0043076164  -0.002271335   -0.091292569   -94893.339      499.8985       30.720122      30.702143      335.37332      316315.26      28.894389      103452.18    
      3900   298.28584      0.00195       -0.00045025647 -0.0079830525  -0.092441312   -94897.154      494.40963      30.970649      30.969132      335.39006      321684.05      29.137885      104329.19    
      4000   298.06234      0.002         -0.0056158733  -0.0010311959  -0.083475274   -94900.079      494.03918      31.213519      31.239649      335.40679      327054.96      29.368825      105161.32    
      4100   298.4207       0.00205       -0.0027602114  -0.0080751885  -0.045413617   -94895.6        494.63316      31.443243      31.512335      335.42353      332354.41      29.593275      105970.3     
      4200   300.36921      0.0021        -0.006876063   -0.0050722079  -0.016877339   -94890.38       497.86282      31.665721      31.793209      335.44027      337706.13      29.849333      106892.55    
      4300   302.3829       0.00215       -4.5010235e-05 -0.0024920294   0.017062803   -94886.903      501.20051      31.869881      32.055859      335.45701      342708.38      30.158008      108003.33    
      4400   301.35496      0.0022        -0.0017341066   0.0049959233   0.054272401   -94880.527      499.4967       32.058994      32.308622      335.47374      347477.64      30.393832      108853.31    
      4500   298.4937       0.00225        0.0060718788   0.0020173866   0.12175821    -94869.759      494.75415      32.245162      32.536904      335.49048      351982.44      30.579131      109522.4     
      4600   301.12122      0.0023         4.6165722e-06  0.0021030335   0.13748823    -94867.456      499.10927      32.425974      32.734406      335.50722      356122.46      30.815864      110375.79    
      4700   298.25403      0.00235        0.0058447467   0.0040388468   0.17239187    -94857.862      494.3569       32.578846      32.949588      335.52396      360171.4       30.962727      110907.36    
      4800   296.20402      0.0024         0.00090693852  0.00062617235  0.19750046    -94849.673      490.959        32.773145      33.116941      335.54069      364177.85      31.144955      111565.66    
      4900   298.54526      0.00245       -0.0041793662  -0.0049162042   0.25720059    -94847.403      494.83961      32.922251      33.299726      335.55743      367872.27      31.272186      112027.01    
      5000   298.10556      0.0025        -0.0066825341  -0.0011960473   0.27000492    -94842.593      494.11081      33.0794        33.446571      335.57417      371276.75      31.451607      112675.37    
      5100   299.68845      0.00255        0.0015848169  -0.0036386423   0.30310909    -94839.092      496.73445      33.211512      33.592253      335.59091      374401.83      31.581361      113145.86    
      5200   297.85199      0.0026        -0.0031632422   0.00077116518  0.35535779    -94830.37       493.69052      33.347832      33.726512      335.60765      377459.95      31.641036      113365.3     
      5300   296.7038       0.00265        0.0035422272   0.0052662835   0.42170517    -94822.658      491.7874       33.480995      33.802995      335.62438      379845.54      31.801922      113947.42    
      5400   298.63619      0.0027         0.013256689   -0.0033475247   0.4246239     -94819.813      494.99033      33.597168      33.901292      335.64112      382291.01      31.950789      114486.53    
      5500   298.17572      0.00275       -0.0062898275   0.0013598901   0.46149401    -94813.604      494.2271       33.686923      33.994654      335.65786      384387.09      31.999293      114666.04    
      5600   299.34771      0.0028        -0.0073335474   0.0021801831   0.5224553     -94811.101      496.16968      33.761629      34.060394      335.6746       386003.77      32.061361      114894.19    
      5700   299.09625      0.00285        0.0020889097   0.00096726813  0.57369326    -94806.671      495.75289      33.832917      34.078617      335.69133      387045.07      32.184495      115341.2     
      5800   297.25596      0.0029         0.011490546    0.0016668913   0.64476467    -94800.465      492.7026       33.890799      34.144164      335.70807      388472.32      32.299976      115760.83    
      5900   299.2688       0.00295       -0.0085347714  -0.0089757842   0.66605235    -94801.859      496.03889      33.931321      34.187367      335.72481      389448.35      32.339913      115909.73    
      6000   299.29404      0.003         -0.0019562939   0.0029369997   0.70506715    -94801.074      496.08073      33.934424      34.20318       335.74155      389683.53      32.274371      115680.59    
      6100   298.48946      0.00305        0.0028661731   0.0059144108   0.73748261    -94798.628      494.74713      33.958207      34.210517      335.75828      390059.73      32.299368      115775.96    
      6200   300.18611      0.0031        -0.00086323734  0.0030703971   0.81654009    -94797.805      497.55933      33.975808      34.218784      335.77502      390375.68      32.301198      115788.29    
      6300   302.8517       0.00315       -0.00037984055 -0.0078058806   0.82887771    -94796.541      501.97755      33.97473       34.212276      335.79176      390308.51      32.371657      116046.65    
      6400   305.6416       0.0032         0.00031800702  0.00086865307  0.87247243    -94800.057      506.60183      33.937744      34.15668       335.8085       389269.43      32.330195      115903.79    
      6500   301.87256      0.00325        0.009053615    0.0062906248   0.96539323    -94803.789      500.35462      33.921285      34.155959      335.82524      389091.82      32.361009      116020.04    
      6600   300.5392       0.0033        -0.0079642789  -0.0037479548   0.98997302    -94806.724      498.14458      33.876631      34.124378      335.84197      388239.69      32.321382      115883.75    
      6700   300.71455      0.00335       -9.5571956e-05  0.0016874692   1.0070412     -94811.33       498.43522      33.804698      34.08133       335.85871      386945.87      32.23899       115594.1     
      6800   300.77362      0.0034         0.0053711819   0.0014333951   1.0641631     -94816.069      498.53312      33.738542      34.0014        335.87545      385302.1       32.177285      115378.61    
      6900   301.67162      0.00345        0.0021927961  -0.00084245619  1.1208172     -94821.547      500.02157      33.634105      33.950572      335.89219      383554.32      32.053339      114939.9     
      7000   298.20154      0.0035        -0.014060433   -0.0056974717   1.2117607     -94823.255      494.26991      33.521055      33.852524      335.90892      381180.14      32.003818      114768.04    
      7100   295.32508      0.00355        0.0045575675   0.0032534017   1.2410914     -94826.845      489.50216      33.40045       33.730348      335.92566      378456.8       31.889639      114364.28    
      7200   298.95984      0.0036         0.011062665    0.0053715705   1.3293907     -94833.212      495.52679      33.289838      33.613405      335.9424       375914.44      31.791308      114017.33    
      7300   301.91083      0.00365       -0.0043025408  -0.0010881066   1.3638462     -94832.123      500.41806      33.151303      33.513081      335.95914      373251.38      31.685044      113641.88    
      7400   304.69549      0.0037        -0.00098190977 -0.00040970745  1.4206794     -94836.66       505.03364      33.013927      33.356229      335.97587      369983.39      31.540451      113128.92    
      7500   302.24293      0.00375        0.0045504553   0.0045947683   1.4353502     -94848.05       500.96851      32.851222      33.207964      335.99261      366541.8       31.422644      112711.98    
      7600   298.04217      0.0038         9.1736095e-05 -0.00034301067  1.5057198     -94848.068      494.00574      32.709282      33.023466      336.00935      362948.51      31.227366      112017.11    
      7700   299.72031      0.00385       -0.0011735383  -0.0037937831   1.559163      -94857.905      496.78727      32.518472      32.857938      336.02609      359040.49      30.992681      111180.8     
      7800   299.56114      0.0039        -0.0019365845  -0.006494736    1.6526047     -94863.256      496.52344      32.358709      32.635988      336.04283      354880.86      30.796215      110481.51    
      7900   300.30339      0.00395       -0.005675352    0.014195769    1.6925468     -94870.407      497.75373      32.153447      32.44359       336.05956      350568.35      30.630952      109894.1     
      8000   299.60144      0.004          0.010468261   -0.0052171929   1.7659043     -94875.419      496.59023      31.951687      32.213535      336.0763       345915.53      30.521022      109505.17    
      8100   302.82886      0.00405        0.0023754783  -0.0012036922   1.8396147     -94884.625      501.9397       31.761042      31.948887      336.09304      341043.67      30.257862      108566.39    
      8200   300.47051      0.0041         0.0011770349   0.0061991149   1.9340949     -94885.978      498.03073      31.545353      31.677618      336.10978      335868.33      30.055567      107845.92    
      8300   300.3032       0.00415        0.0011149214   0.0059593694   1.9855119     -94889.646      497.75341      31.323332      31.416384      336.12651      330770.62      29.841589      107083.45    
      8400   297.78858      0.0042         0.0055764783   0.0036607745   2.1125917     -94891.331      493.58541      31.094979      31.150296      336.14325      325594.34      29.631161      106333.65    
      8500   296.43289      0.00425        0.0058577659   0.010320953    2.1922564     -94898.949      491.33835      30.86045       30.891201      336.15999      320466.82      29.456874      105713.47    
      8600   296.24262      0.0043        -0.00061038411  0.00095637104  2.2422958     -94892.853      491.02298      30.616562      30.640189      336.17673      315366.47      29.239211      104937.55    
      8700   296.10227      0.00435        0.00439119     0.0039168725   2.3692893     -94884.565      490.79035      30.383651      30.39404       336.19346      310468.58      29.017835      104148.23    
      8800   297.73165      0.0044         0.0050646087  -0.0043852134   2.4567493     -94878.023      493.49105      30.142134      30.182387      336.2102       305871.12      28.705021      103030.64    
      8900   296.43186      0.00445        0.0074101636   0.0078427646   2.5989777     -94865.297      491.33666      29.908561      29.978946      336.22694      301470.2       28.493424      102276.25    
      9000   294.92732      0.0045        -0.0030206418   0.0011433253   2.5987154     -94852.738      488.84288      29.72724       29.821344      336.24368      298082.12      28.296882      101575.83    
      9100   294.79816      0.00455       -0.0036024692  -0.0014877937   2.7812496     -94840.761      488.62878      29.607789      29.679345      336.26042      295485.4       28.072272      100774.57    
      9200   295.71754      0.0046        -0.00052426158 -0.0024156533   2.8525145     -94830.295      490.15267      29.548864      29.621676      336.27715      294338.97      27.959011      100372.98    
      9300   303.0756       0.00465        0.0027910852  -0.0095230019   2.9374871     -94832.587      502.34867      29.566501      29.623367      336.29389      294546.14      27.971917      100424.31    
      9400   302.88346      0.0047        -0.011096647    0.0099528324   2.9664315     -94829.506      502.03019      29.609732      29.712114      336.31063      295875.24      28.01418       100581.05    
      9500   306.97806      0.00475        0.0031032109  -0.0050470861   2.9791618     -94843.702      508.81701      29.754338      29.83436       336.32737      298558.35      28.064527      100766.83    
      9600   305.83172      0.0048        -0.0069665477  -0.0048189218   2.971685      -94854.429      506.91694      29.910581      30.027552      336.3441       302084.6       28.222385      101338.67    
      9700   302.54848      0.00485       -0.0034205467  -0.008604533    2.9392846     -94861.184      501.47497      30.118739      30.246702      336.36084      306422.21      28.375627      101893.99    
      9800   304.83574      0.0049        -0.002306694   -0.00038169974  2.9131941     -94877.229      505.26611      30.342363      30.466645      336.37758      310957.53      28.601238      102709.24    
      9900   303.84084      0.00495        0.0034342285  -0.006127898    2.9847894     -94885.975      503.61706      30.587356      30.700367      336.39432      315888.75      28.752639      103258.07    
     10000   298.29769      0.005         -0.0046252518  -0.0024424232   2.9921977     -94884.679      494.42927      30.840024      30.934753      336.41105      320945.75      28.930763      103902.93    
     10100   296.69929      0.00505       -0.0078238545  -0.0043825448   3.0058619     -94886.079      491.77991      31.08002       31.173737      336.42779      325958.28      29.203274      104886.85    
     10200   300.63376      0.0051        -0.005270301   -0.0017138413   2.98916       -94892.281      498.30131      31.332214      31.395679      336.44453      330959.18      29.472032      105857.4     
     10300   299.37361      0.00515        0.0011753932  -0.0033025302   2.9820287     -94883.602      496.2126       31.550989      31.624871      336.46127      335719.69      29.808779      107072.25    
     10400   301.08965      0.0052         0.0037074189   0.0013319409   2.9839636     -94879.335      499.05695      31.777033      31.832145      336.47801      340357.97      30.001011      107768.1     
     10500   298.25283      0.00525       -0.0018540875   0.0059064832   2.9917854     -94870.702      494.35491      31.980018      32.035666      336.49474      344739.26      30.181103      108420.41    
     10600   299.58754      0.0053        -0.0034763841   0.0083621808   3.00363       -94867.794      496.5672       32.13495       32.271812      336.51148      348980.27      30.342758      109006.55    
     10700   300.77305      0.00535        0.0080803318  -0.011937285    3.0252103     -94865.986      498.53219      32.320616      32.465877      336.52822      353124.84      30.528965      109680.95    
     10800   297.63842      0.0054        -0.0092469382  -0.00073607425  3.0719327     -94856.177      493.33653      32.485051      32.663797      336.54496      357102.85      30.692434      110273.73    
     10900   298.56731      0.00545        0.0025353817   0.0022819311   3.06731       -94853.012      494.87616      32.618588      32.86306       336.56169      360776.17      30.934779      111149.97    
     11000   296.05895      0.0055         0.0023732801  -0.0029382442   3.1029439     -94842.547      490.71855      32.764904      33.030878      336.57843      364263.2       31.012196      111433.68    
     11100   299.54113      0.00555        0.0020804175   0.0099164414   3.1510783     -94841.468      496.49027      32.850363      33.210081      336.59517      367212.96      31.188639      112073.25    
     11200   299.873        0.0056         0.00050716995  0.0041178334   3.1354885     -94836.968      497.04034      32.989722      33.343147      336.61191      370266.75      31.376312      112753.24    
     11300   297.23946      0.00565        0.0043033055  -0.011976105    3.1579692     -94827.992      492.67525      33.058356      33.482743      336.62865      372609.01      31.481364      113136.38    
     11400   295.88852      0.0057        -0.0077463418   0.0099848315   3.1964585     -94819.937      490.43606      33.137132      33.595555      336.64538      374773.95      31.68519       113874.54    
     11500   299.84037      0.00575        0.010363276   -0.0017040502   3.2362499     -94821.478      496.98626      33.21681       33.691551      336.66212      376767.28      31.729707      114040.2     
     11600   302.10386      0.0058        -0.0030537812   0.00064326778  3.2657029     -94821.108      500.738        33.285176      33.814462      336.67886      378938.89      31.764642      114171.44    
     11700   296.63138      0.00585       -0.011773822   -0.0038175437   3.3098412     -94806.923      491.66735      33.329646      33.856758      336.6956       379938.68      31.810985      114343.69    
     11800   300.16172      0.0059         0.013155629    0.0051728722   3.3819439     -94807.467      497.51891      33.385321      33.904875      336.71233      381133.15      31.924025      114755.72    
     11900   299.173        0.00595        0.0013980865  -0.0013251365   3.3592505     -94804.194      495.8801       33.430364      33.97616       336.72907      382468.8       32.038947      115174.54    
     12000   302.27388      0.006         -0.005713481   -0.0044468504   3.451527      -94807.072      501.01982      33.459992      34.006         336.74581      383163.02      32.06424       115271.2     
     12100   303.70006      0.00605       -0.0050057576   0.0042616664   3.491761      -94804.17       503.38372      33.47085       34.017118      336.76255      383431.72      32.055567      115245.75    
     12200   303.94778      0.0061         0.0075411714   0.0083718063   3.5016944     -94797.196      503.79431      33.512348      34.03046       336.77928      384076.77      32.071939      115310.34    
     12300   302.00787      0.00615       -0.0011111418  -0.0038299015   3.5770198     -94794.989      500.5789       33.54541       34.028893      336.79602      384457.09      32.041451      115206.45    
     12400   297.92519      0.0062        -0.00056571264 -0.0092097837   3.6141117     -94798.173      493.81185      33.52975       33.978221      336.81276      383724.46      32.016789      115123.5     
     12500   298.57248      0.00625        0.0064992703   0.012010207    3.6589515     -94802.57       494.88474      33.522339      33.934436      336.8295       383164.33      32.070184      115321.22    
     12600   302.4527       0.0063        -0.0021978405  -0.0022042364   3.6941348     -94813.22       501.31621      33.531754      33.897243      336.84624      382870.89      32.095763      115418.94    
     12700   298.57729      0.00635       -0.0027483647  -0.007156538    3.7496427     -94811.453      494.8927       33.481778      33.8162        336.86297      381405.19      31.985244      115027.22    
     12800   297.46052      0.0064         0.0019839493   0.0035600429   3.809958      -94810.106      493.04166      33.42698       33.739115      336.87971      379931.83      31.845927      114531.89    
     12900   299.81376      0.00645        0.0022742552   0.0093809562   3.9284095     -94807.784      496.94216      33.380209      33.653584      336.89645      378457.23      31.760445      114230.13    
     13000   307.72576      0.0065         0.00091798193 -0.014805546    3.9222914     -94816.068      510.05632      33.333543      33.556287      336.91319      376854.23      31.676859      113935.16    
     13100   301.01939      0.00655       -0.0099813936   0.00075999001  4.038566      -94812.677      498.9405       33.209258      33.445979      336.92992      374233.51      31.615173      113718.95    
     13200   303.10874      0.0066         0.0096453602   0.010179507    4.029182      -94823.72       502.40359      33.146166      33.331027      336.94666      372257.24      31.456402      113153.47    
     13300   301.95629      0.00665       -0.00026237703 -0.00022876393  4.1362623     -94829.116      500.49342      33.030675      33.186633      336.9634       369371.49      31.376042      112870.01    
     13400   299.56515      0.0067         0.0010571408  -0.0013856354   4.1813279     -94831.84       496.53009      32.930533      33.074409      336.98014      367024.58      31.262269      112466.32    
     13500   300.89174      0.00675       -0.0098803017  -0.0080956427   4.258047      -94839.208      498.72892      32.771855      32.911914      336.99687      363479.6       31.1825        112184.92    
     13600   300.32499      0.0068         0.0099503638   0.0091550125   4.3462537     -94843.364      497.78952      32.612671      32.781079      337.01361      360294.03      31.086697      111845.8     
     13700   299.43747      0.00685       -0.0023648281  -0.00099017581  4.3690663     -94847.038      496.31846      32.465465      32.627706      337.03035      357007.37      30.913399      111227.82    
     13800   302.18196      0.0069         0.00066175885 -0.0016177663   4.5194381     -94854.522      500.86745      32.252583      32.469661      337.04709      352965.96      30.73404       110587.97    
     13900   300.78101      0.00695        0.0029688299   0.0017158633   4.5802426     -94856.59       498.54539      32.06012       32.290742      337.06383      348943.66      30.533554      109872.04    
     14000   301.13399      0.007          0.0026483484   0.0030955738   4.6794797     -94862.041      499.13044      31.837796      32.106324      337.08056      344561.92      30.343394      109193.19    
     14100   300.27494      0.00705       -0.0062047774  -0.0018268598   4.738265      -94865.081      497.70657      31.630054      31.91964       337.0973       340340.15      30.163616      108551.63    
     14200   299.45999      0.0071        -0.0037064336  -0.0013211238   4.8296045     -94868.404      496.35578      31.381266      31.714366      337.11404      335508.36      29.9921        107939.75    
     14300   300.89512      0.00715        0.010024265   -0.0012045481   4.9204351     -94875.558      498.73452      31.148767      31.502115      337.13078      330810.27      29.795825      107238.69    
     14400   300.20484      0.0072        -0.0028240648   0.00092601508  5.0451474     -94877.719      497.59037      30.908505      31.293455      337.14751      326100.5       29.603268      106550.94    
     14500   298.4967       0.00725       -0.0034134543  -0.0035846378   5.1442423     -94875.459      494.75913      30.691104      31.054299      337.16425      321348.13      29.399776      105823.77    
     14600   298.34769      0.0073        -0.0021716967   0.0015989835   5.2637319     -94873.265      494.51214      30.452963      30.818313      337.18099      316447.38      29.200872      105113.03    
     14700   300.01559      0.00735        0.0009019047   0.0037335056   5.3349775     -94865.725      497.2767       30.243238      30.589532      337.19773      311950.56      29.063114      104622.35    
     14800   299.34753      0.0074        -0.0047869159   0.00062305794  5.468029      -94860.537      496.16938      30.052374      30.360966      337.21446      307680.92      28.88136       103973.22    
     14900   298.88847      0.00745        0.0035712885  -0.0049757824   5.5958157     -94854.535      495.40849      29.861076      30.164922      337.2312       303763.38      28.655952      103166.87    
     15000   296.926        0.0075         0.0042059132   0.0021144084   5.669377      -94843.99       492.15569      29.684843      30.012602      337.24794      300460.72      28.499207      102607.65    
     15100   297.83083      0.00755       -0.0011826437   0.0009599774   5.7592666     -94838.864      493.65544      29.574064      29.90513       337.26468      298282.35      28.326126      101989.56    
     15200   297.3746       0.0076         0.0013066858  -0.001352545    5.9113469     -94829.106      492.89924      29.49774       29.876938      337.28142      297246.83      28.249943      101720.31    
     15300   300.03539      0.00765       -0.012460591   -0.01320103     5.9395498     -94825.787      497.30951      29.477381      29.865387      337.29815      296941.56      28.216948      101606.55    
     15400   301.4875       0.0077         0.0005586515   0.0074898139   6.0027076     -94823.816      499.71638      29.511754      29.90979       337.31489      297744.6       28.245657      101714.97    
     15500   301.91161      0.00775        0.0059327162   0.0012099002   6.0443602     -94829.963      500.41935      29.625769      30.019516      337.33163      300006.3       28.210776      101594.4     
     15600   302.49978      0.0078        -0.0065047565   0.00037318626  6.0712627     -94838.468      501.39425      29.784183      30.171253      337.34837      303150.05      28.317779      101984.81    
     15700   305.70658      0.00785       -0.0015436975  -0.0088491828   6.0464299     -94852.249      506.70952      29.976586      30.344115      337.3651       306871.67      28.49245       102618.97    
     15800   304.90449      0.0079         0.00032045165 -0.0026062368   5.9906407     -94860.687      505.38006      30.154766      30.567657      337.38184      310985.27      28.622216      103091.45    
     15900   302.18329      0.00795       -0.0015649067  -0.00037493967  6.0119229     -94865.339      500.86967      30.360574      30.807732      337.39858      315582.53      28.799049      103733.51    
     16000   299.57791      0.008         -0.0078914551  -0.0028914993   5.9918202     -94868.76       496.55123      30.573985      31.049691      337.41532      320312.67      29.103755      104836.26    
     16100   301.38306      0.00805        0.0014846303  -0.0057815875   5.9403189     -94878.253      499.54328      30.773367      31.286108      337.43205      324872.45      29.27921       105473.51    
     16200   298.17493      0.0081         0.001878657    0.0025985831   5.9757639     -94876.366      494.2258       30.983754      31.522497      337.44879      329581.27      29.429486      106020.11    
     16300   296.01456      0.00815        0.0056789779   0.0035957437   5.9333763     -94868.492      490.64497      31.182327      31.753691      337.46553      334142.84      29.632363      106756.27    
     16400   300.00226      0.0082        -0.0033503923   0.004438228    5.9754224     -94866.652      497.25459      31.396555      31.971989      337.48227      338768.18      29.790916      107332.81    
     16500   300.9116       0.00825       -0.0051919701   0.00042759913  5.9249926     -94865.446      498.76182      31.564039      32.171219      337.49901      342714.59      30.003006      108102.3     
     16600   300.39237      0.0083         0.0031645936   0.00086787962  5.9243359     -94859.701      497.9012       31.742324      32.379416      337.51574      346897.97      30.199011      108813.92    
     16700   300.90596      0.00835        0.00062242066 -0.0097362284   5.9207442     -94855.404      498.75248      31.921843      32.55811       337.53248      350802.53      30.347252      109353.49    
     16800   297.74097      0.0084        -0.0033584928   0.0054714311   5.9921738     -94844.282      493.5065       32.092153      32.71757       337.54922      354419.01      30.510689      109947.87    
     16900   298.84894      0.00845        0.0033209458   0.0043825746   5.9736832     -94842.834      495.34297      32.24147       32.879047      337.56596      357843.14      30.681203      110567.81    
     17000   299.25539      0.0085         0.0035527287  -0.0027360858   5.9739147     -94840.385      496.01667      32.403541      33.02102       337.58269      361212.8       30.823783      111087.15    
     17100   299.09211      0.00855       -0.0080127082   0.0016051286   5.9829352     -94832.877      495.74602      32.518671      33.169089      337.59943      364139.71      31.020342      111801.08    
     17200   298.28975      0.0086         0.011016839   -0.0027709744   6.0086946     -94826.107      494.41611      32.658485      33.25451       337.61617      366665.31      31.159513      112308.23    
     17300   297.94995      0.00865       -0.0047264324   0.0055269484   6.0226997     -94822.237      493.85288      32.737066      33.400336      337.63291      369177.61      31.281719      112754.29    
     17400   299.62194      0.0087        -0.00078023631 -0.0058727285   6.0689181     -94819.44       496.62422      32.84083       33.478829      337.64964      371236.52      31.38658       113137.87    
     17500   300.13953      0.00875       -0.001495863    0.00025074689  6.0829583     -94814.555      497.48212      32.896142      33.584536      337.66638      373054.39      31.459977      113408.06    
     17600   296.45537      0.0088        -0.0010649775   0.012254355    6.1237386     -94804.913      491.37562      32.982092      33.659287      337.68312      374880.17      31.533267      113677.89    
     17700   297.67276      0.00885        0.0091723023  -0.013639271    6.1535919     -94801.166      493.39345      33.043607      33.726193      337.69986      376344.56      31.62463       114012.91    
     17800   300.3599       0.0089        -0.007434585    0.0043794591   6.1628034     -94800.583      497.84739      33.054397      33.802118      337.7166       377333.67      31.713398      114338.6     
     17900   300.18136      0.00895        0.0054750199   0.0028045147   6.2076686     -94798.348      497.55146      33.075912      33.865977      337.73333      378311.33      31.785421      114603.95    
     18000   301.11767      0.009          0.0014233284  -0.0041820548   6.2014214     -94799.75       499.1034       33.093699      33.922024      337.75007      379160.01      31.83958       114804.91    
     18100   298.61273      0.00905       -0.012187785    0.0038536673   6.2979276     -94797.4        494.95145      33.046279      33.970407      337.76681      379175.51      31.828109      114769.24    
     18200   300.23272      0.0091         0.0083060547   0.0029507173   6.3419622     -94803.147      497.63658      33.049337      33.97213       337.78355      379248.63      31.725465      114404.78    
     18300   300.45992      0.00915        0.0069804925  -0.0052159296   6.4043883     -94806.385      498.01317      33.001623      34.014315      337.80028      379190.14      31.714706      114371.65    
     18400   300.81259      0.0092        -0.0064803845  -0.00021100136  6.4527006     -94804.215      498.59772      32.94807       34.017728      337.81702      378631.57      31.689645      114286.94    
     18500   301.07508      0.00925       -0.001988339    0.0029169096   6.4905908     -94798.02       499.03281      32.885082      33.986476      337.83376      377579.24      31.676954      114246.83    
     18600   300.24331      0.0093         0.012786909   -0.0047530092   6.585458      -94793.425      497.65413      32.817234      33.998611      337.8505       376953.44      31.563666      113843.88    
     18700   302.36968      0.00935       -0.014593969    0.0059502237   6.6344514     -94800.785      501.17861      32.718479      33.972673      337.86723      375550.99      31.512804      113666.07    
     18800   299.15071      0.0094         0.0064090084  -0.0027262156   6.7009398     -94805.012      495.84315      32.653705      33.907996      337.88397      374112.46      31.447621      113436.57    
     18900   302.93124      0.00945        0.0032415168   0.0019333864   6.7387645     -94812.728      502.10939      32.552928      33.85796       337.90071      372425.97      31.381598      113204.02    
     19000   301.75092      0.0095        -0.0086595623   0.0058717498   6.8016822     -94815.157      500.15301      32.484219      33.815185      337.91745      371188.75      31.274677      112823.91    
     19100   301.25097      0.00955        0.002777193   -0.012509504    6.8569819     -94820.212      499.32434      32.361763      33.70375       337.93419      368589.13      31.26135       112781.42    
     19200   300.59115      0.0096         0.0037879525   0.013346633    6.9689615     -94822.97       498.23068      32.236216      33.608907      337.95092      366144.14      31.080704      112135.26    
     19300   303.0162       0.00965        0.0054331815  -0.0049583489   7.0083665     -94829.533      502.25022      32.121091      33.488004      337.96766      363542.09      30.919333      111558.58    
     19400   300.55356      0.0097        -0.01290996     0.0010094032   7.1577663     -94827.878      498.16838      31.991994      33.348001      337.9844       360585.1       30.772584      111034.6     
     19500   303.64276      0.00975        0.0022788633  -0.01021924     7.211885      -94835.562      503.28874      31.819996      33.190625      338.00114      356971.64      30.674668      110686.78    
     19600   302.72782      0.0098         0.0096237335   0.01438023     7.3312704     -94840.257      501.77222      31.685817      33.012021      338.01787      353571.04      30.54516       110224.92    
     19700   300.95007      0.00985        0.0021113835   0.0012068467   7.3758706     -94843.047      498.8256       31.514884      32.861079      338.03461      350073.06      30.422245      109786.8     
     19800   300.12586      0.0099        -0.0020673966  -0.00020669598  7.4794087     -94845.378      497.45947      31.336815      32.660913      338.05135      345991.83      30.290151      109315.52    
     19900   300.81427      0.00995        0.0029489112  -0.0042362006   7.5729958     -94849.668      498.60051      31.152515      32.490947      338.06809      342183.97      30.204016      109010.06    
     20000   299.21031      0.01          -0.00076333442 -0.0028724067   7.6900488     -94852.107      495.94194      30.989685      32.256357      338.08483      337954.44      30.019229      108348.5     
     20100   298.6309       0.01005       -0.0069312893   0.0034046614   7.799354      -94856.074      494.98156      30.773841      32.094265      338.10156      333930.68      29.809248      107595.94    
     20200   298.40894      0.0101         0.0023423633   0.0027447606   7.8962356     -94857.494      494.61366      30.533159      31.879021      338.1183       329113.27      29.640004      106990.36    
     20300   298.22168      0.01015        0.0037655419   0.0035499303   8.0146757     -94858.953      494.30329      30.278387      31.691238      338.13504      324460.71      29.538087      106627.75    
     20400   299.33311      0.0102         0.0029368899  -0.00047942264  8.1088204     -94860.493      496.14548      30.040477      31.487501      338.15178      319857.61      29.35212       105961.68    
     20500   298.20603      0.01025       -0.00045830515  0.0012265378   8.2570768     -94855.477      494.27734      29.792464      31.310507      338.16851      315449.39      29.206556      105441.42    
     20600   299.83595      0.0103        -0.0085744038  -0.0039882742   8.3873869     -94849.784      496.97894      29.565925      31.126462      338.18525      311226.02      28.943883      104498.28    
     20700   300.39137      0.01035        0.00034027541  0.0034956713   8.5329729     -94845.178      497.89955      29.358755      30.945852      338.20199      307267.22      28.792553      103957.07    
     20800   297.54806      0.0104         0.011206969   -0.0026035434   8.6948509     -94834.494      493.18675      29.17899       30.804367      338.21873      304004.63      28.557008      103111.73    
     20900   299.18474      0.01045       -3.6441115e-05  0.0017637552   8.7813632     -94830.108      495.89955      29.032651      30.680876      338.23546      301282.28      28.453903      102744.53    
     21000   297.65075      0.0105        -8.3643574e-05 -0.0056414479   8.8753848     -94820.269      493.35697      28.925518      30.607881      338.2522       299471.18      28.342294      102346.58    
     21100   298.43649      0.01055       -0.0092840324   0.0040726834   8.9726209     -94813.964      494.65932      28.881843      30.560592      338.26894      298571.8       28.218412      101904.27    
     21200   301.39123      0.0106        -0.00012698142  0.0077868668   9.0202192     -94813.66       499.55682      28.905504      30.585322      338.28568      299073.01      28.185796      101791.53    
     21300   301.32353      0.01065        0.0025312773  -0.011292322    9.013005      -94815.031      499.44461      28.967672      30.661044      338.30242      300473.12      28.260476      102066.28    
     21400   300.97876      0.0107         0.0011342603  -0.0052385369   9.0862566     -94821.563      498.87314      29.058257      30.790208      338.31915      302697.45      28.330361      102323.74    
     21500   303.9602       0.01075        0.0035432283  -0.00068750283  9.0629417     -94831.46       503.81489      29.18844       30.95024       338.33589      305649         28.385002      102526.17    
     21600   302.29761      0.0108         0.006477648    0.015088091    9.0262119     -94835.032      501.05915      29.333963      31.151451      338.35263      309185.1       28.586309      103258.39    
     21700   303.74555      0.01085       -0.010518538   -0.0072090205   8.9851425     -94845.523      503.45911      29.548387      31.348726      338.36937      313432.99      28.763192      103902.46    
     21800   302.5833       0.0109        -0.0066956912  -0.0090638882   8.9734995     -94851.559      501.53267      29.745693      31.545333      338.3861       317520.47      28.915668      104458.42    
     21900   301.41439      0.01095       -0.0015842258   0.0039586457   8.9666773     -94855.422      499.5952       29.967714      31.741802      338.40284      321898.68      29.077692      105048.94    
     22000   302.09559      0.011          0.002895582   -0.00071861525  8.884127      -94860.964      500.72429      30.19266       31.955116      338.41958      326510.58      29.330361      105966.99    
     22100   294.90648      0.01105       -0.00015859772 -0.0037393007   8.8563257     -94849.758      488.80833      30.410504      32.164496      338.43632      331037.61      29.578138      106867.47    
     22200   299.43501      0.0111        -0.0038957342  -0.004669944    8.8354941     -94849.196      496.31438      30.604197      32.370037      338.45305      335291.57      29.749125      107490.57    
     22300   298.88203      0.01115       -0.0040804944   0.00052232143  8.8009328     -94842.834      495.39782      30.781139      32.569899      338.46979      339329.03      29.922052      108120.74    
     22400   298.44889      0.0112        -0.00081699922  0.0011575014   8.8061083     -94840.98       494.67989      30.935177      32.774504      338.48653      343186.45      30.081295      108701.53    
     22500   300.60864      0.01125        0.0032868748   0.0023706925   8.7746136     -94841.129      498.25968      31.09747       32.970904      338.50327      347071.36      30.312573      109542.69    
     22600   298.68519      0.0113         0.0011239631   0.0075363005   8.7749369     -94829.201      495.07156      31.216129      33.162314      338.52001      350435.59      30.489832      110188.71    
     22700   300.5588       0.01135        0.010575812   -0.004253251    8.7622777     -94826.726      498.17707      31.365359      33.339586      338.53674      354010.61      30.613903      110642.56    
     22800   300.04079      0.0114        -0.0086257293   0.013158043    8.7549802     -94824.607      497.31847      31.492443      33.529747      338.55348      357490.01      30.733105      111078.87    
     22900   297.72731      0.01145        0.0089991976  -0.011637488    8.7294886     -94819.868      493.48386      31.588199      33.71271       338.57022      360551.48      30.870197      111579.88    
     23000   299.05121      0.0115        -0.0083602906   0.0063164393   8.7472414     -94813.496      495.67822      31.686264      33.832305      338.58696      362971.78      31.015886      112112.01    
     23100   298.6736       0.01155        0.011424772    0.0038198751   8.7868423     -94807.33       495.05234      31.75799       34.01578       338.60369      365784.36      31.105004      112439.7     
     23200   298.74289      0.0116        -0.0073513961  -0.0057314001   8.7890515     -94805.314      495.16719      31.842869      34.125868      338.62043      367967.16      31.21033       112826.02    
     23300   302.07875      0.01165        0.0028881523  -0.0048749999   8.788363      -94806.325      500.69638      31.861275      34.246581      338.63717      369500.47      31.367318      113399.13    
     23400   300.20645      0.0117        -0.007330298    0.0062832876   8.8218494     -94795.56       497.59304      31.904807      34.330225      338.65391      370927.35      31.338532      113300.67    
     23500   303.09734      0.01175        0.019068503    0.0017764049   8.9168543     -94794.458      502.38471      31.932643      34.428753      338.67064      372334.87      31.47152       113787.09    
     23600   302.52211      0.0118        -0.012733248   -0.0035677575   8.8359544     -94793.498      501.43125      31.938654      34.54203       338.68738      373648.7       31.587516      114212.13    
     23700   299.51698      0.01185       -0.0047741029   0.0010759422   8.9073263     -94790.027      496.45024      31.934256      34.588488      338.70412      374118.22      31.556237      114104.67    
     23800   300.75728      0.0119         0.0075366952   0.00017270949  8.9466722     -94789.126      498.50605      31.981262      34.624407      338.72086      375076.52      31.577056      114185.59    
     23900   303.65004      0.01195        0.0034032928  -0.00224694     8.9910166     -94785.882      503.30081      31.939466      34.697359      338.7376       375394.12      31.623097      114357.73    
     24000   300.90339      0.012         -0.0098926662   0.0038073757   9.0663283     -94778.318      498.74822      31.940281      34.733562      338.75433      375813.97      31.593708      114257.1     
     24100   301.06644      0.01205        0.0040323062  -0.0043335121   9.0713179     -94784.533      499.01849      31.913091      34.749005      338.77107      375679.56      31.643507      114442.85    
     24200   298.20044      0.0121         0.0044406311   0.0017717325   9.1558446     -94783.638      494.26807      31.883389      34.758703      338.78781      375453.2       31.53593       114059.42    
     24300   297.35264      0.01215       -0.007102984    0.0030234269   9.1700943     -94784.269      492.86284      31.833168      34.755202      338.80455      374842.57      31.546358      114102.77    
     24400   298.05395      0.0122         0.0030340432  -0.0059622946   9.2654538     -94786.484      494.02527      31.765908      34.705224      338.82128      373531.13      31.481824      113874.98    
     24500   298.90839      0.01225        0.0041364408   0.0065200065   9.3244077     -94788.089      495.4415       31.670073      34.680835      338.83802      372160.89      31.444445      113745.39    
     24600   302.15939      0.0123        -0.0064967884   0.0047410985   9.4354439     -94794.181      500.83005      31.599355      34.648615      338.85476      371003.23      31.310413      113266.14    
     24700   300.26433      0.01235        0.00095569524 -0.012825357    9.464799      -94795.771      497.68898      31.505674      34.567867      338.8715       369059.51      31.274027      113140.11    
     24800   300.74861      0.0124         0.0026602231   0.0078490733   9.5829394     -94800.947      498.49167      31.383571      34.49759       338.88823      366899.92      31.138375      112654.92    
     24900   301.75007      0.01245        0.0047560968   0.00013650839  9.6462464     -94807.509      500.1516       31.274368      34.42272       338.90497      364847.74      31.043947      112318.84    
     25000   300.68969      0.0125        -0.011220859    0.0004984572   9.7200553     -94811.431      498.39402      31.115159      34.363832      338.92171      362387.33      30.978079      112086.06    
     25100   298.77902      0.01255        0.0025047978  -0.013881856    9.8018211     -94816.003      495.22708      30.980895      34.246716      338.93845      359611.62      30.885888      111758.01    
     25200   298.14497      0.0126         0.00095709418  0.011859031    9.8751298     -94822.987      494.17614      30.786723      34.169461      338.95519      356569.24      30.767589      111335.45    
     25300   298.28677      0.01265        0.0097294607   0.0036023946   10.03725      -94822.234      494.41117      30.621146      34.063611      338.97192      353570.36      30.605097      110752.93    
     25400   301.02604      0.0127        -0.0045725279  -0.0020892545   10.109434     -94824.182      498.95151      30.420567      33.969881      338.98866      350305.14      30.495976      110363.5     
     25500   301.64215      0.01275        0.0026270494  -0.0019305144   10.18136      -94826.044      499.97272      30.207346      33.818497      339.0054       346316.74      30.378832      109944.98    
     25600   299.47997      0.0128        -0.0020812624   0.0041516468   10.307742     -94829.91       496.3889       29.953504      33.719573      339.02214      342418.92      30.151917      109129.14    
     25700   299.95898      0.01285        0.00064451713 -0.0028821472   10.467826     -94834.965      497.18286      29.739064      33.562824      339.03887      338403.85      29.961177      108444.14    
     25800   299.29612      0.0129        -0.0082539815  -0.00065696872  10.617079     -94834.397      496.08416      29.465451      33.444616      339.05561      334125.98      29.776556      107781.23    
     25900   301.53421      0.01295        0.014674963   -0.00096543787  10.761493     -94839.836      499.79381      29.213427      33.274853      339.07235      329602.9       29.533871      106908.07    
     26000   295.63117      0.013         -0.00087600281  0.0072587548   10.900602     -94839.608      490.00951      28.948504      33.11768       339.08909      325087.19      29.343489      106224.16    
     26100   299.55482      0.01305       -0.0011061682  -0.00072849568  11.06533      -94846.505      496.51296      28.715569      32.958062      339.10582      320932.97      29.117713      105412.05    
     26200   298.35235      0.0131        -0.0033438004  -0.0026880828   11.1767       -94839.901      494.51987      28.471906      32.792474      339.12256      316626.61      28.947535      104801.14    
     26300   296.79968      0.01315       -0.00563693    -0.012511651    11.350509     -94831.664      491.94631      28.246638      32.633062      339.1393       312609.88      28.723635      103995.67    
     26400   298.19778      0.0132        -0.0041858736  -0.0006117366   11.533343     -94829.094      494.26366      28.010893      32.460846      339.15604      308380.09      28.473378      103094.69    
     26500   299.6083       0.01325        0.0047779583   0.0081894083   11.601124     -94825.259      496.6016       27.822158      32.324493      339.17278      305030.68      28.405119      102852.62    
     26600   298.42442      0.0133        -0.00076579245  0.0068731315   11.758906     -94816.461      494.63933      27.635593      32.231212      339.18951      302125.82      28.25712       102321.77    
     26700   297.07403      0.01335        0.0013074229  -0.0049396953   11.89898      -94806.154      492.40105      27.519456      32.157836      339.20625      300186.05      28.165804      101996.14    
     26800   297.74576      0.0134        -0.010373268   -0.0061069757   11.967833     -94798.958      493.51444      27.434232      32.131997      339.22299      299030.71      28.116949      101824.25    
     26900   298.97165      0.01345       -0.0014424667  -0.011869231    12.071437     -94793.478      495.54637      27.418271      32.127802      339.23973      298832.47      28.018146      101471.44    
     27000   305.56884      0.0135         0.00064576782  0.0070748097   12.11409      -94799.223      506.48122      27.456323      32.167871      339.25646      299635.2       28.07098       101667.81    
     27100   301.27283      0.01355        0.0010543396   0.0045844876   12.12053      -94795.414      499.36058      27.553169      32.260415      339.2732       301572.03      28.122477      101859.34    
     27200   304.22796      0.0136         0.0024299926   0.0051347948   12.099652     -94809.231      504.25871      27.698254      32.381764      339.28994      304315.36      28.30273       102517.27    
     27300   300.19853      0.01365       -0.00075606162 -0.001378807    12.06776      -94809.79       497.57992      27.876803      32.539123      339.30668      307780.58      28.483023      103175.42    
     27400   302.63759      0.0137        -0.0028633179  -0.0082879      11.964959     -94823.492      501.62267      28.072982      32.694822      339.32341      311444.99      28.690656      103932.66    
     27500   300.34421      0.01375       -0.0026982429  -0.0019573709   11.903081     -94827.164      497.82138      28.282063      32.860203      339.34015      315367.24      28.952295      104885.63    
     27600   299.79081      0.0138         0.0029440057  -0.00083508315  11.833873     -94831.392      496.90411      28.49927       33.031764      339.35689      319464.19      29.147903      105599.47    
     27700   298.58698      0.01385       -0.00018859275  0.0049517592   11.77958      -94832.315      494.90877      28.739635      33.207332      339.37363      323886.86      29.34785       106329.1     
     27800   297.74621      0.0139        -0.002183591   -0.0030529103   11.756735     -94828.731      493.51518      28.956767      33.403656      339.39037      328279.37      29.487835      106841.54    
     27900   302.18675      0.01395       -0.0065543795  -0.0011520074   11.726864     -94827.514      500.8754       29.175071      33.573526      339.4071       332452.66      29.685518      107563.1     
     28000   303.05022      0.014          0.006434401    0.0015788305   11.673187     -94825.946      502.30661      29.377308      33.751968      339.42384      336552.98      29.861618      108206.52    
     28100   299.82221      0.01405       -0.00015604073  0.010719604    11.627697     -94823.729      496.95616      29.580308      33.897943      339.44058      340361.01      30.105322      109094.99    
     28200   296.60087      0.0141         0.0090010025   0.00025950516  11.543031     -94817.502      491.61678      29.766699      34.085773      339.45732      344420.51      30.40768       110196.1     
     28300   296.64074      0.01415       -0.0034104271  -0.0061578596   11.559008     -94814.014      491.68287      29.962097      34.232725      339.47405      348193.19      30.464955      110409.1     
     28400   297.30081      0.0142        -0.0049642929  -0.0035618884   11.546467     -94811.441      492.77694      30.12394       34.37288       339.49079      351524.58      30.554073      110737.54    
     28500   296.19077      0.01425        0.003243464    0.001504365    11.527445     -94803.616      490.93703      30.263387      34.499175      339.50753      354466.87      30.691435      111240.87    
     28600   299.69479      0.0143         0.0054853297   0.015118062    11.513059     -94802.76       496.74497      30.409076      34.630163      339.52427      357543.25      30.818469      111706.81    
     28700   298.11455      0.01435        0.0017341998  -0.012416205    11.515971     -94794.63       494.12571      30.521413      34.778066      339.54101      360414.53      30.94582       112173.94    
     28800   299.04629      0.0144        -0.012226715   -0.00038628957  11.555891     -94790.916      495.67007      30.623141      34.88026       339.55774      362696.27      30.961984      112238.07    
     28900   298.44217      0.01445        0.0091500759  -0.0024539587   11.564234     -94784.876      494.66875      30.712859      34.964512      339.57448      364655.49      31.027173      112479.92    
     29000   300.52965      0.0145        -0.00025458987  0.009130414    11.580426     -94783.517      498.12875      30.77814       35.086243      339.59122      366720.92      31.119419      112819.89    
     29100   299.2717       0.01455        0.0031022481  -0.0021846139   11.595757     -94778.457      496.04369      30.880951      35.180627      339.60796      368953.89      31.177509      113036.07    
     29200   302.08059      0.0146        -0.0039374086  -0.0093421379   11.639338     -94780.691      500.69944      30.894518      35.260457      339.62469      369971.8       31.230685      113234.44    
     29300   300.15347      0.01465       -0.003481802    0.0083971614   11.63323      -94775.601      497.50523      30.924586      35.321765      339.64143      370994.05      31.292373      113463.7     
     29400   298.75425      0.0147         0.0084268317   0.0016741323   11.674617     -94771.092      495.18602      30.948783      35.376097      339.65817      371873.78      31.335046      113624.02    
     29500   303.76652      0.01475        0.0031831561  -0.004810354    11.715489     -94768.214      503.49387      30.948738      35.448502      339.67491      372652.72      31.34915       113680.77    
     29600   301.94726      0.0148        -0.01391566    -0.00059341056  11.750688     -94762.874      500.47845      30.895033      35.503273      339.69164      372599.2       31.35326       113701.27    
     29700   301.64196      0.01485        0.0039548588   0.0046238649   11.812846     -94766.844      499.97241      30.904465      35.509686      339.70838      372798.64      31.366901      113756.34    
     29800   299.73418      0.0149         0.0090951577  -0.0021509101   11.849702     -94769.85       496.81025      30.850406      35.547492      339.72512      372561.1       31.307663      113547.11    
     29900   300.35903      0.01495       -0.0018246666   0.00077050337  11.917636     -94771.668      497.84594      30.799256      35.564991      339.74186      372144.83      31.327041      113622.98    
     30000   300.91269      0.015         -0.0096425848   0.001706751    11.951328     -94769.729      498.76364      30.745208      35.553766      339.7586       371392.82      31.288612      113489.19    
     30100   302.10928      0.01505        0.014549757   -0.0083381275   12.052874     -94769.607      500.74698      30.697126      35.518009      339.77533      370457.32      31.203086      113184.55    
     30200   296.62574      0.0151        -0.0056027183   0.0086792746   12.106997     -94768.068      491.65801      30.575018      35.5294        339.79207      369120.21      31.140043      112961.44    
     30300   298.18467      0.01515       -0.0024253438   0.002081328    12.197561     -94777.143      494.24194      30.505035      35.475766      339.80881      367737.51      31.097141      112811.37    
     30400   300.3802       0.0152         0.0030260132  -0.005361377    12.227064     -94779.864      497.88104      30.384575      35.435121      339.82555      365883.74      31.07224       112726.58    
     30500   300.63369      0.01525       -0.0081786754  -0.00032471485  12.32061      -94777.369      498.3012       30.244888      35.369059      339.84228      363540.58      30.972891      112371.69    
     30600   302.96346      0.0153         0.0031751921   0.0060398849   12.386872     -94780.719      502.16279      30.147012      35.267949      339.85902      361346.02      30.913454      112161.58    
     30700   297.25235      0.01535        0.011740889   -0.003550826    12.506305     -94780.388      492.69662      29.982828      35.186088      339.87576      358561.59      30.835811      111885.38    
     30800   297.39455      0.0154        -0.01147911     0.0049858125   12.610439     -94785.617      492.93231      29.859338      35.064204      339.8925       355865.38      30.722117      111478.34    
     30900   302.02184      0.01545        0.014798844   -0.0034880308   12.74029      -94796.033      500.60205      29.679678      34.9535        339.90923      352624.77      30.58299       110978.96    
     31000   298.3625       0.0155        -0.00749716     0.0055720371   12.837987     -94795.167      494.53669      29.512881      34.823837      339.92597      349359.52      30.483864      110624.7     
     31100   302.03367      0.01555        0.00037772221 -0.0071250341   12.950607     -94806.069      500.62166      29.31253       34.699929      339.94271      345770.24      30.36226       110188.84    
     31200   300.9441       0.0156        -0.0024605561   0.0030174701   13.083037     -94807.499      498.8157       29.151415      34.547924      339.95945      342380.26      30.175938      109518.04    
     31300   299.40833      0.01565       -0.0032508114   0.0023225211   13.217231     -94806.126      496.27016      28.917014      34.419358      339.97619      338380.01      30.044093      109044.9     
     31400   302.46506      0.0157         0.0094532217  -0.0011734812   13.361787     -94813.578      501.33669      28.686048      34.273113      339.99292      334267.49      29.839257      108306.78    
     31500   300.51453      0.01575        0.0056060838  -0.0019655245   13.523611     -94816.186      498.10369      28.458897      34.116631      340.00966      330122.76      29.593217      107419.03    
     31600   297.93508      0.0158        -0.00022462012  0.0057822675   13.700603     -94815.473      493.82825      28.19722       33.96573       340.0264       325656.6       29.377649      106641.79    
     31700   300.72847      0.01585        0.0091836721   0.0029268484   13.826896     -94818.701      498.45829      27.939495      33.832781      340.04314      321432.85      29.175607      105913.59    
     31800   299.34667      0.0159         0.0051687119   0.0034587905   14.027897     -94813.024      496.16796      27.6737        33.685218      340.05987      317001.99      28.976832      105197.17    
     31900   298.99699      0.01595        0.001779233   -0.00015216104  14.202384     -94808.022      495.58836      27.428441      33.555579      340.07661      312998.76      28.769675      104450.25    
     32000   300.1036       0.016         -0.0032092974  -0.0009544173   14.318113     -94806.84       497.42257      27.196266      33.422572      340.09335      309134.36      28.635246      103967.31    
     32100   299.0452       0.01605       -6.9110688e-05 -0.0030010463   14.53397      -94800.896      495.66827      26.986423      33.305256      340.11009      305687.45      28.4161        103176.73    
     32200   295.77903      0.0161        -0.00099635295 -0.0022104806   14.654162     -94788.668      490.25458      26.823007      33.192049      340.12682      302818.5       28.279126      102684.44    
     32300   293.17467      0.01615       -0.003271258    0.002321353    14.815423     -94777.96       485.93784      26.702241      33.110654      340.14356      300730.67      28.130077      102148.25    
     32400   297.25742      0.0162        -0.0056340341  -0.0035985629   14.932283     -94775.801      492.70502      26.6406        33.052927      340.1603       299528.09      28.038476      101820.63    
     32500   298.49893      0.01625       -0.0045621203  -0.003485685    15.020385     -94771.594      494.76283      26.626238      33.033589      340.17704      299206.19      27.958789      101536.25    
     32600   301.99957      0.0163        -0.002016295    5.4819796e-05  15.077718     -94772.922      500.56514      26.646919      33.058319      340.19378      299677.49      27.951185      101513.63    
     32700   302.66671      0.01635       -0.00052573378 -0.0029199917   15.09362      -94774.608      501.67093      26.721491      33.119921      340.21051      301090.95      28.024774      101785.9     
     32800   302.64061      0.0164        -0.0055009368   0.0048075164   15.079513     -94784.711      501.62766      26.839784      33.206273      340.22725      303227.26      28.109824      102099.82    
     32900   301.73408      0.01645       -0.00085485709  0.0028351235   15.021672     -94786.612      500.12509      26.990901      33.33475       340.24399      306129.4       28.263706      102663.8     
     33000   303.61456      0.0165        -0.0030335742   0.0010747286   14.925812     -94798.168      503.24199      27.209696      33.459579      340.26073      309781.86      28.472657      103427.87    
     33100   304.26561      0.01655       -7.194996e-05  -0.004278698    14.866106     -94805.372      504.32112      27.431399      33.611043      340.27746      313735.11      28.646527      104064.58    
     33200   299.82337      0.0166         0.002231442   -0.0013279889   14.850864     -94804.178      496.95808      27.690922      33.742336      340.2942       317956.07      28.798264      104620.94    
     33300   300.22819      0.01665        0.0016093754  -0.00091363698  14.746839     -94808.928      497.62908      27.932179      33.891659      340.31094      322161.44      28.998705      105354.31    
     33400   297.02067      0.0167         0.011332941   -0.0056952836   14.685416     -94806.874      492.3126       28.187215      34.0132        340.32768      326284.86      29.200795      106093.73    
     33500   299.3511       0.01675       -0.0056097548   0.0066883105   14.610675     -94806.835      496.1753       28.414245      34.135048      340.34441      330107.41      29.407174      106848.81    
     33600   300.11828      0.0168        -0.0057682302   4.842245e-05   14.570567     -94796.902      497.44691      28.63927       34.287086      340.36115      334220.06      29.567575      107436.9     
     33700   298.49703      0.01685        0.00023618142 -0.00098895359  14.46829      -94793.416      494.75968      28.848428      34.43092       340.37789      338089.84      29.796664      108274.65    
     33800   298.0237       0.0169        -0.00031854276 -0.0021901691   14.420856     -94792.441      493.97513      29.061961      34.574112      340.39463      342025.62      29.980189      108946.89    
     33900   299.73956      0.01695       -0.0017011111  -0.0012902163   14.343084     -94791.663      496.81917      29.261825      34.685194      340.41137      345501.22      30.222235      109831.88    
[...]
    991200   303.02405      0.4956         0.00015436593 -0.00096973726  0.085585336   -94629.795      502.26323      29.273601      32.835309      500.64138      481220.36      31.845108      170204.37    
    991300   303.23496      0.49565       -0.0014079775   3.1701004e-05  0.047561762   -94635.314      502.61281      29.272416      32.834731      500.65812      481208.5       31.628339      169051.44    
    991400   300.00305      0.4957         0.003479938   -0.0019988983   0.0081138805  -94632.942      497.2559       29.251009      32.844242      500.67485      481011.96      31.510603      168427.78    
    991500   299.09389      0.49575        0.0022734263  -0.0002223654  -0.027442708   -94632.702      495.74897      29.272601      32.83251       500.69159      481211.17      31.70047       169448.31    
    991600   298.87411      0.4958        -0.0017987578  -0.00059764273 -0.075963143   -94630.979      495.38469      29.255663      32.845476      500.70833      481138.74      31.345054      167554.1     
    991700   298.69132      0.49585        0.0033102439   0.0014250945  -0.12076556    -94628.697      495.08171      29.258341      32.84107       500.72507      481134.31      31.623319      169047.21    
    991800   301.10642      0.4959        -0.0047494225   0.0020011872  -0.14708776    -94632.076      499.08474      29.251384      32.85745       500.7418       481275.91      31.888301      170469.41    
    991900   298.70497      0.49595       -0.0026264763  -0.0020715935  -0.18533353    -94634.067      495.10434      29.228979      32.865034      500.75854      481034.36      32.087008      171537.4     
    992000   294.63229      0.496          0.00028040032  0.0019691081  -0.24087908    -94631.229      488.35386      29.223727      32.880744      500.77528      481193.91      31.49101       168356.82    
    992100   294.9276       0.49605        0.00051531734  0.0026379145  -0.29296483    -94631.101      488.84333      29.22064       32.889412      500.79202      481286.01      31.721741      169596.02    
    992200   305.26118      0.4961        -0.0040629796   0.0028795767  -0.30894889    -94638.391      505.97128      29.213175      32.915356      500.80876      481558.7       31.595903      168928.88    
    992300   303.5496       0.49615        0.00025944861 -0.005518654   -0.35998918    -94633.361      503.13433      29.19877       32.919739      500.82549      481401.42      31.552863      168704.41    
    992400   300.77032      0.4962         0.0047513232   0.00018465926 -0.36844685    -94632.61       498.52766      29.184368      32.938582      500.84223      481455.47      31.70592       169528.43    
    992500   299.70399      0.49625        0.0020252953  -0.0020658744  -0.42641724    -94635.758      496.76021      29.176782      32.945498      500.85897      481447.49      31.438296      168103.09    
    992600   299.15542      0.4963         0.0015224608   0.00076392621 -0.41900993    -94635.506      495.85096      29.183948      32.955651      500.87571      481730.24      31.587939      168908.88    
    992700   301.39932      0.49635        6.7364561e-05 -0.0025237385  -0.42378858    -94637.7        499.57023      29.186904      32.9659        500.89244      481944.97      31.51107       168503.48    
    992800   297.92125      0.4964         0.004332071   -0.00057280216 -0.43132205    -94630.7        493.80532      29.195004      32.966146      500.90918      482098.43      31.40638       167949.27    
    992900   300.89575      0.49645        0.00048403816  0.0012738816  -0.50853515    -94634.084      498.73557      29.201393      32.982804      500.92592      482463.71      31.453443      168206.56    
    993000   299.66877      0.4965        -0.0046120517   0.0012806801  -0.54099443    -94630.027      496.70184      29.210138      32.99052       500.94266      482737.21      31.419297      168029.57    
    993100   299.93028      0.49655       -0.002898475    0.0016721453  -0.53974598    -94629.905      497.13528      29.207476      33.012644      500.95939      483033.07      31.620597      169111.77    
    993200   295.90024      0.4966        -0.0023567681  -0.00098705325 -0.53923353    -94626.706      490.45549      29.190629      33.023922      500.97613      482935.5       31.515831      168557.09    
    993300   297.71787      0.49665        0.0017810117   0.0014666468  -0.50095612    -94634.097      493.46822      29.199192      33.036212      500.99287      483273.09      31.776557      169957.22    
    993400   294.20621      0.4967         0.00071610148 -0.00087106707 -0.56100945    -94631.06       487.64764      29.209419      33.053956      501.00961      483718.19      31.429046      168104.17    
    993500   300.79818      0.49675       -0.0001088143  -0.0014532371  -0.52230054    -94636.684      498.57383      29.202429      33.05353       501.02635      483612.36      31.804213      170116.51    
    993600   300.23533      0.4968         0.00043299742  0.0017776104  -0.53514086    -94627.859      497.64091      29.209676      33.05853       501.04308      483821.7       31.518617      168594.52    
    993700   298.99559      0.49685        0.0056374858   0.002196485   -0.50956803    -94625.189      495.58605      29.215495      33.075316      501.05982      484179.99      31.635363      169224.66    
    993800   298.08416      0.4969        -0.0013377477  -0.0030413996  -0.43985807    -94629.209      494.07534      29.230816      33.090729      501.07656      484675.83      31.708083      169619.32    
    993900   298.88222      0.49695       -0.0044314198  -0.003776102   -0.37346941    -94635.98       495.39812      29.226021      33.079041      501.0933       484441.33      31.613475      169118.87    
    994000   295.81519      0.497          0.0012518165   0.0010985934  -0.33805417    -94630.452      490.31452      29.235974      33.068468      501.11003      484467.61      31.812268      170188.01    
    994100   299.98355      0.49705        0.0012496584   0.0039337331  -0.3270378     -94634.726      497.22359      29.227802      33.071895      501.12677      484398.56      31.828839      170282.35    
    994200   300.34133      0.4971         0.0030527686   0.0038419413  -0.2226508     -94632.52       497.81661      29.244065      33.084246      501.14351      484865.29      31.569517      168900.64    
    994300   303.86109      0.49715       -0.0043401467  -0.0044906384  -0.17961187    -94636.097      503.65062      29.253221      33.105674      501.16025      485347.43      31.922309      170793.82    
    994400   301.03134      0.4972        -0.0010465576  -0.0038819627  -0.094696325   -94629.116      498.9603       29.23762       33.097456      501.17698      484984.37      31.814143      170220.79    
    994500   302.21166      0.49725       -0.0038132484   0.0010270301  -0.089242463   -94631.982      500.91668      29.232184      33.101243      501.19372      484965.89      31.538231      168750.16    
    994600   297.11063      0.4973         0.0030543489   0.0083490507  -0.060143216   -94629.511      492.46172      29.204328      33.104071      501.21046      484561.33      31.732463      169795.1     
    994700   296.46961      0.49735        0.0028614817  -0.0015487674  -0.02928891    -94633.299      491.39922      29.208409      33.136141      501.2272       485114.72      31.810474      170218.21    
    994800   300.25503      0.4974        -0.000387666   -0.0054891797  -0.0029948161  -94639.964      497.67356      29.193764      33.130303      501.24394      484802.26      31.67184       169482.04    
    994900   301.29278      0.49745       -0.0027892925  -0.00099795602  0.10117121    -94631.892      499.39364      29.191583      33.132934      501.26067      484820.73      31.631077      169269.56    
    995000   303.62992      0.4975         0.00072710114 -0.00076310217  0.14220254    -94632.931      503.26746      29.182522      33.114107      501.27741      484411         31.885677      170637.71    
    995100   301.57698      0.49755        0.0030880982   0.0066512024   0.21430368    -94634.301      499.86469      29.179018      33.111869      501.29415      484336.29      31.481067      168478.05    
    995200   296.64436      0.4976        -0.00065727758  0.0014234254   0.23193854    -94630.972      491.68888      29.178303      33.145424      501.31089      484831.4       31.602031      169131.06    
    995300   299.8241       0.49765       -0.00037350369 -0.0064426129   0.26722901    -94637.063      496.9593       29.16964       33.128119      501.32762      484450.58      31.67125       169507.17    
    995400   299.63153      0.4977        -0.0012381548   0.00030985825  0.30985958    -94635.179      496.64012      29.163055      33.123559      501.34436      484290.71      31.637882      169334.24    
    995500   302.057        0.49775        0.0002524954  -0.00028743878  0.37475205    -94627.534      500.66034      29.13337       33.109546      501.3611       483609.23      31.628004      169287.02    
    995600   303.44461      0.4978         0.004085478    0.0021183604   0.33548955    -94628.301      502.96031      29.137352      33.1145        501.37784      483763.86      31.525671      168744.92    
    995700   300.86423      0.49785        0.0053007554   0.00030158854  0.4062462     -94631.994      498.68332      29.1345        33.115016      501.39457      483740.19      31.810488      170275.12    
    995800   298.4601       0.4979        -0.0058697132  -0.0011456888   0.43165752    -94632.646      494.69846      29.138122      33.122738      501.41131      483929.3       31.632291      169326.92    
    995900   300.04542      0.49795       -0.0031080573  -0.0035492237   0.40908818    -94637.257      497.32614      29.124197      33.114919      501.42805      483599.99      31.633905      169341.22    
    996000   301.65916      0.498         -0.0017880733   0.003965975    0.48887426    -94638.974      500.00091      29.10025       33.119883      501.44479      483290.92      31.51858       168729.5     
    996100   299.11237      0.49805        0.0003786886   0.0032468213   0.51438146    -94629.316      495.7796       29.074802      33.139192      501.46153      483165.91      31.620204      169279.17    
    996200   303.98118      0.4981        -0.0032390781   0.005326417    0.55125906    -94631.969      503.84967      29.056235      33.15462       501.47826      483098.29      31.451829      168383.4     
    996300   298.80827      0.49815        0.0020887976  -0.0088509532   0.56142995    -94626.37       495.27555      29.041221      33.168333      501.495        483064.5       31.513561      168719.52    
    996400   298.66756      0.4982        -0.00099705562  0.0006373988   0.54000901    -94634.154      495.04233      29.034221      33.135664      501.51174      482488.49      31.465439      168467.5     
    996500   297.35993      0.49825        0.0058507457   0.00010689627  0.55388167    -94632.972      492.87493      29.021128      33.151893      501.52848      482523.22      31.437994      168326.18    
    996600   300.78933      0.4983         0.0030503263   0.0027189039   0.54160237    -94636.043      498.55917      29.022575      33.144421      501.54521      482454.62      31.683154      169644.49    
    996700   302.99378      0.49835       -0.00067554756 -0.0029301825   0.56268095    -94636.041      502.21305      29.024601      33.16455       501.56195      482797.44      31.363346      167937.71    
    996800   302.16217      0.4984        -0.0030448277  -0.004886793    0.5076775     -94629.888      500.83466      29.039157      33.152315      501.57869      482877.47      31.614934      169290.51    
    996900   300.54101      0.49845       -0.00035620317  0.0017811025   0.48385311    -94628.019      498.14757      29.032875      33.141561      501.59543      482632.51      31.485717      168604.21    
    997000   298.44791      0.4985         0.00067368044  0.0021637711   0.45291105    -94632.383      494.67825      29.03899       33.121606      501.61217      482459.6       31.66545       169572.32    
    997100   299.4024       0.49855       -0.00044696262  0.0070919361   0.41874447    -94637.052      496.26033      29.035929      33.146177      501.6289       482782.72      31.73862       169969.83    
    997200   298.06172      0.4986        -0.0011432567  -0.0046416915   0.36445476    -94635.9        494.03815      29.038494      33.161733      501.64564      483068.09      31.782179      170208.78    
    997300   299.88495      0.49865       -0.0034908871  -0.0019725171   0.329279      -94632.4        497.06015      29.022811      33.166902      501.66238      482898.57      31.451007      168440.82    
    997400   304.71877      0.4987        -0.00086014428 -0.0022756885   0.26246547    -94634.699      505.07222      29.013841      33.16814       501.67912      482783.44      31.781154      170214.65    
    997500   302.08371      0.49875        0.0016921855   0.0036615099   0.25113294    -94633.99       500.70461      28.977295      33.180196      501.69585      482366.67      31.446161      168426.1     
    997600   298.69412      0.4988         0.0042334552   0.0044269749   0.21308183    -94633.25       495.08635      28.987451      33.203398      501.71259      482889.27      31.708982      169839.44    
    997700   299.24096      0.49885        0.00016104185 -0.004327937    0.14543036    -94634.827      495.99274      28.993162      33.224073      501.72933      483301.27      31.824483      170463.77    
    997800   299.29359      0.4989        -0.0030915538  -0.0015235159   0.10499731    -94633.784      496.07998      29.004661      33.227296      501.74607      483555.99      31.94094       171093.27    
    997900   300.54713      0.49895       -0.0028492492  -0.0028910478   0.072567664   -94633.182      498.15772      29.015757      33.223567      501.7628       483702.83      32.013785      171489.19    
    998000   302.47439      0.499         -0.00039865612  0.0031698911  -0.017593719   -94630.128      501.35216      29.013448      33.209822      501.77954      483480.37      31.481647      168644.29    
    998100   303.99608      0.49905        0.0069294291   0.0034810042  -0.067627761   -94627.474      503.87437      29.029717      33.231522      501.79628      484083.71      31.798791      170348.88    
    998200   301.54491      0.4991         7.5843275e-05 -0.00071481388 -0.11612683    -94631.393      499.81154      29.052348      33.228928      501.81302      484439.43      31.497021      168737.9     
    998300   303.25731      0.49915       -0.00021965155 -0.0033921923  -0.15028298    -94639.7        502.64985      29.050891      33.252074      501.82976      484768.73      31.737341      170031.03    
    998400   299.40478      0.4992         0.00024732237 -0.0042766695  -0.23321195    -94636.907      496.26427      29.070618      33.242216      501.84649      484970.27      31.794304      170341.89    
    998500   299.87687      0.49925        0.00071769893 -0.00021232006 -0.24305977    -94636.476      497.04677      29.083607      33.228699      501.86323      485005.86      31.499081      168765.83    
    998600   300.32942      0.4993        -0.002688729    0.006635587   -0.27609107    -94630.172      497.79686      29.101686      33.238776      501.87997      485470.72      31.782655      170290.84    
    998700   303.08279      0.49935        0.00077299899  0.00085200017 -0.30332425    -94629.716      502.36059      29.105         33.261257      501.89671      485870.58      31.681189      169752.85    
    998800   300.74662      0.4994        -0.0049365281   0.0011961771  -0.29065446    -94630.128      498.48838      29.11027       33.264352      501.91344      486019.98      31.666396      169679.24    
    998900   302.06228      0.49945       -0.0027616367  -0.003468414   -0.37467577    -94640.181      500.66909      29.082863      33.296346      501.93018      486045.64      31.938055      171140.59    
    999000   297.43435      0.4995         0.0042717895  -0.00051607722 -0.40706867    -94633.995      492.99829      29.074789      33.283455      501.94692      485738.77      31.600446      169337.15    
    999100   297.76535      0.49955        0.0040838169   0.0016348495  -0.39826137    -94632.301      493.54691      29.081111      33.296272      501.96366      486047.68      31.794507      170382.75    
    999200   301.14255      0.4996         0.0029345502  -0.0018682065  -0.50200531    -94631.609      499.14464      29.096851      33.291678      501.98039      486259.87      31.901914      170964.03    
    999300   300.28852      0.49965        0.00011900768  3.4580289e-05 -0.55099599    -94627.952      497.72908      29.115932      33.299524      501.99713      486709.65      31.529307      168972.84    
    999400   301.7172       0.4997        -0.0016882173  -0.0047514019  -0.57774684    -94635.978      500.09712      29.131721      33.277878      502.01387      486673.25      31.841734      170652.9     
    999500   296.26841      0.49975       -0.0029584408   0.0063653762  -0.50739609    -94635.047      491.06574      29.118884      33.277139      502.03061      486464.23      31.661701      169693.69    
    999600   299.68709      0.4998        -0.00074294106  0.0014120936  -0.50571456    -94638.354      496.7322       29.118386      33.279986      502.04735      486513.74      31.750491      170175.24    
    999700   300.79868      0.49985       -0.0025305282   0.0018842822  -0.54292625    -94636.484      498.57466      29.117954      33.275288      502.06408      486454.06      31.947163      171235.06    
    999800   299.84093      0.4999        -0.0013524219  -0.0013871707  -0.56680527    -94631.348      496.9872       29.116832      33.28058       502.08082      486528.9       31.625064      169514.29    
    999900   304.00245      0.49995       -0.0011451022  -0.00064761189 -0.59639799    -94637.388      503.88493      29.102332      33.274484      502.09756      486213.75      31.669244      169756.75    
   1000000   301.41917      0.5            0.0064099413  -0.0019133406  -0.51781295    -94640.019      499.60312      29.115401      33.259492      502.1143       486229.13      31.867527      170825.31    
   1000100   294.86231      0.50005        0.00028078072 -0.00019453874 -0.48864706    -94635.076      488.73512      29.114107      33.259326      502.13103      486221.29      31.504252      168883.6     
Loop time of 4842.29 on 288 procs for 1000000 steps with 12824 atoms

Performance: 8.921 ns/day, 2.690 hours/ns, 206.514 timesteps/s
99.8% CPU use with 288 MPI tasks x 1 OpenMP threads

MPI task timing breakdown:
Section |  min time  |  avg time  |  max time  |%varavg| %total
---------------------------------------------------------------
Pair    | 51.1       | 1337.9     | 2735.8     |2185.0 | 27.63
Neigh   | 3.9962     | 26.995     | 40.768     | 205.8 |  0.56
Comm    | 90.711     | 1167.4     | 2743.7     |1992.4 | 24.11
Output  | 2.7146     | 2.7646     | 3.4021     |   2.4 |  0.06
Modify  | 1243       | 2268.5     | 4461.8     |1983.5 | 46.85
Other   |            | 38.7       |            |       |  0.80

Nlocal:        44.5278 ave         144 max           0 min
Histogram: 142 6 6 5 37 23 23 8 23 15
Nghost:        1235.84 ave        2269 max           0 min
Histogram: 81 0 7 11 0 10 6 92 36 45
Neighs:              0 ave           0 max           0 min
Histogram: 288 0 0 0 0 0 0 0 0 0
FullNghs:      15983.9 ave       52098 max           0 min
Histogram: 142 9 4 7 32 24 25 10 23 12

Total # of neighbors = 4603372
Ave neighs/atom = 358.96538
Neighbor list builds = 4360
Dangerous builds = 0


Total wall time: 1:22:12
