

##---------------INITIALIZATION-------------------------------

units          metal
dimension 	    3
boundary       p p p
atom_style 	atomic
newton 		on


##---------------ATOM DEFINITION------------------------------

read_data 	CNT_99_99_13.43.dat
Reading data file ...
  orthogonal box = (-70.0284 -70.0275 -0.614014) to (70.0284 70.0275 1342.84)
  8 by 8 by 64 MPI processor grid
  reading atoms ...
  216612 atoms
  read_data CPU = 0.770 seconds


##---------------FORCE FIELDS---------------------------------
#Set the formula(s) LAMMPS uses to compute pairwise interactions. In LAMMPS, pair potentials are defined between pairs #of atoms that are within a cutoff distance and the set of active interactions typically changes over time

pair_style 	airebo 3.0

#Specify the pairwise force field coefficients for one or more pairs of atom types. The number and meaning of the coefficients depends on the pair style.

pair_coeff     * * /ascldap/users/bcma/CH.airebo C
Reading airebo potential file /ascldap/users/bcma/CH.airebo with DATE: 2011-10-25


##---------------SETTINGS-------------------------------------

timestep 	0.0005
variable   ts equal 0.0005


##---------------COMPUTES-----stresses in 3 directions and min/max on x and z atom coordinates --------------------------

compute    1 all stress/atom NULL
compute    2 all reduce sum c_1[1] c_1[2] c_1[3]
compute    3 all property/atom x y # true atoms position
compute    4 all reduce min c_3[1] c_3[2]
compute    5 all reduce max c_3[1] c_3[2]


variable   Lx equal lx
variable   Ly equal ly
variable   Lz equal lz
variable   Vol equal vol
variable   thickn equal 3.4
#making the damp parameter timestep dependent
fix		1 all npt temp 300 300 0.05 iso 0 0 0.05 #$(100.0*dt)x 0 0 0.5 y 0 0 0.5 z 0 0 0.5
thermo 	2000
##---------------RELAXATION--------------------------------------

run            50000
Neighbor list info ...
  update every 1 steps, delay 10 steps, check yes
  max neighbors/atom: 2000, page size: 100000
  master list distance cutoff = 12.2
  ghost atom cutoff = 12.2
  binsize = 6.1, bins = 23 23 221
  1 neighbor lists, perpetual/occasional/extra = 1 0 0
  (1) pair airebo, perpetual
      attributes: full, newton on, ghost
      pair build: full/bin/ghost
      stencil: full/ghost/bin/3d
      bin: standard
Per MPI rank memory allocation (min/avg/max) = 3.769 | 3.842 | 3.946 Mbytes
   Step          Temp          E_pair         E_mol          TotEng         Press          Volume    
         0   0             -1605431        0             -1605431       -8634.8012      26352731     
      2000   96.143581     -1607499.1      0             -1604807.1      5.5887306      24529093     
      4000   295.47179     -1605263.6      0             -1596990.6      2.0995403      25420500     
      6000   293.68711     -1606063.6      0             -1597840.6     -7.6782046      25638324     
      8000   307.54497     -1605197.8      0             -1596586.8      3.8295259      25591251     
     10000   289.5924      -1604639.6      0             -1596531.3     -1.8350037      25703532     
     12000   284.11739     -1605039.2      0             -1597084.1      1.7916797      25376958     
     14000   311.81119     -1604332.2      0             -1595601.7      0.097687903    25477865     
     16000   316.10935     -1604548.6      0             -1595697.8      8.7050372      25202635     
     18000   303.03768     -1599817.5      0             -1591332.7     -0.66164152     25524097     
     20000   303.99024     -1600098.1      0             -1591586.7     -3.7176872      25292539     
     22000   304.53136     -1601276.6      0             -1592750       -1.404457       25158348     
     24000   296.54545     -1600907.3      0             -1592604.3      0.2193338      25047668     
     26000   299.29391     -1600716.4      0             -1592336.4     -3.1355619      24944712     
     28000   299.24262     -1600071.2      0             -1591692.7     -6.2952435      25049184     
     30000   302.60874     -1600831        0             -1592358.2     -5.6579539      24914737     
     32000   299.70752     -1601638.1      0             -1593246.5      3.9531608      24891518     
     34000   300.45365     -1601543.3      0             -1593130.9      18.406638      24934300     
     36000   298.19391     -1601705.5      0             -1593356.4      17.438         24955336     
     38000   300.78218     -1601544.5      0             -1593122.8     -2.0993425      24919890     
     40000   300.28233     -1601579.6      0             -1593172       -7.8596094      24989381     
     42000   299.58928     -1601565.8      0             -1593177.5     -2.2439032      24984478     
     44000   300.83603     -1601558.1      0             -1593135        13.393968      24982860     
     46000   299.63195     -1601614.4      0             -1593224.9      0.048048442    25022738     
     48000   299.5516      -1601570.4      0             -1593183.3     -20.241756      25026978     
     50000   300.20044     -1601620.1      0             -1593214.8     -8.4203986      25038513     
Loop time of 573.612 on 4096 procs for 50000 steps with 216612 atoms

Performance: 3.766 ns/day, 6.373 hours/ns, 87.167 timesteps/s
99.7% CPU use with 4096 MPI tasks x 1 OpenMP threads

MPI task timing breakdown:
Section |  min time  |  avg time  |  max time  |%varavg| %total
---------------------------------------------------------------
Pair    | 0.1537     | 51.493     | 291.5      | 937.4 |  8.98
Neigh   | 0.019133   | 1.4634     | 5.8652     | 113.8 |  0.26
Comm    | 2.5843     | 66.821     | 298.49     | 807.5 | 11.65
Output  | 0.022197   | 0.022846   | 0.025326   |   0.1 |  0.00
Modify  | 167.2      | 446.57     | 563.61     | 542.6 | 77.85
Other   |            | 7.24       |            |       |  1.26

Nlocal:        52.8838 ave         425 max           0 min
Histogram: 3019 165 182 141 130 145 144 41 38 91
Nghost:        622.978 ave        2888 max           0 min
Histogram: 1963 402 519 325 167 274 217 190 27 12
Neighs:              0 ave           0 max           0 min
Histogram: 4096 0 0 0 0 0 0 0 0 0
FullNghs:        18222 ave      173141 max           0 min
Histogram: 3076 250 149 165 160 119 48 2 52 75

Total # of neighbors = 74637364
Ave neighs/atom = 344.56708
Neighbor list builds = 710
Dangerous builds = 2


##---------------DEFORMATION--------------------------------------
unfix              1
reset_timestep     0
fix		1 all npt temp 300 300 0.05 x 0 0 0.05 y 0 0 0.05 #$(100.0*dt)
fix        2 all ave/time 1 100 100 c_2[1] c_2[2] c_2[3]
fix        3 all ave/time 1 100 100 v_Lx v_Ly v_Lz v_Vol
fix        4 all  ave/time 1 100 100 c_4[1] c_4[2]
fix        5 all ave/time 1 100 100 c_5[1] c_5[2]
variable   srate equal 1.0e9
variable   srate1 equal "v_srate / 1.0e12"
fix		6 all deform 1 z erate ${srate1} units box remap x
fix		6 all deform 1 z erate 0.001 units box remap x
run            100
Per MPI rank memory allocation (min/avg/max) = 3.771 | 4.024 | 4.758 Mbytes
   Step          Temp          E_pair         E_mol          TotEng         Press          Volume    
         0   300.20044     -1601620.1      0             -1593214.8     -8.4203986      25038513     
       100   300.8937      -1601654.1      0             -1593229.3     -38.964652      25046539     
Loop time of 1.84443 on 4096 procs for 100 steps with 216612 atoms

Performance: 2.342 ns/day, 10.247 hours/ns, 54.217 timesteps/s
99.7% CPU use with 4096 MPI tasks x 1 OpenMP threads

MPI task timing breakdown:
Section |  min time  |  avg time  |  max time  |%varavg| %total
---------------------------------------------------------------
Pair    | 9.5593e-05 | 0.14319    | 1.251      |  72.3 |  7.76
Neigh   | 0          | 0          | 0          |   0.0 |  0.00
Comm    | 0.00014082 | 0.2228     | 1.3746     |  70.7 | 12.08
Output  | 0.00046273 | 0.00054049 | 0.00074311 |   0.0 |  0.03
Modify  | 0.36947    | 1.4688     | 1.8352     |  40.5 | 79.64
Other   |            | 0.009086   |            |       |  0.49

Nlocal:        52.8838 ave         425 max           0 min
Histogram: 3017 164 185 141 130 145 144 41 37 92
Nghost:        622.974 ave        2887 max           0 min
Histogram: 1960 408 514 326 169 273 217 190 27 12
Neighs:              0 ave           0 max           0 min
Histogram: 4096 0 0 0 0 0 0 0 0 0
FullNghs:      18221.7 ave      172606 max           0 min
Histogram: 3073 250 151 164 164 117 48 2 51 76

Total # of neighbors = 74636124
Ave neighs/atom = 344.56135
Neighbor list builds = 0
Dangerous builds = 0
##---------------THERMO-OUTPUTS--------------------------------------
variable cntdiameter equal ((f_5[1]-f_4[1])+(f_5[2]-f_4[2]))/2
#actual volume of cnt
variable   CorVol equal 3.14*v_cntdiameter*v_thickn*f_3[3]
#convertion factor of stress from barr to GPA
variable   ConvoFac equal 1/1.0e4
variable   sigmaxx equal f_2[1]*v_ConvoFac/v_CorVol
variable   sigmayy equal f_2[2]*v_ConvoFac/v_CorVol
variable   sigmazz equal f_2[3]*v_ConvoFac/v_CorVol
variable   StrainPerTs equal v_srate1*v_ts
variable   strain equal v_StrainPerTs*step
thermo 	100
thermo_style custom step temp v_strain v_sigmaxx v_sigmayy v_sigmazz pe ke lx ly lz vol v_cntdiameter v_CorVol
thermo_modify lost warn


##---------------DEFORMATION--------------------------------------
dump           1 all atom 5000 /ascldap/users/bcma/CNT_99_99_13.43/CNT_99_99_13.43.lammpstrj
run            1000000
Per MPI rank memory allocation (min/avg/max) = 4.771 | 5.024 | 5.758 Mbytes
   Step          Temp         v_strain      v_sigmaxx      v_sigmayy      v_sigmazz        PotEng         KinEng           Lx             Ly             Lz           Volume     v_cntdiameter     v_CorVol   
       100   300.8937       5e-05          0.00044820309  1.0948707e-05  0.19361609    -1601654.1      8424.7737      137.63228      137.78077      1320.8054      25046539       101.79507      1435367.7    
       200   299.9908       0.0001         0.0002312229   0.00014715204  0.25228811    -1601663.3      8399.4931      137.6201       137.78664      1320.8714      25046643       101.74655      1434755.2    
       300   299.7604       0.00015        0.00046555566  0.0018074901   0.30434821    -1601671.9      8393.0422      137.54052      137.93351      1320.9374      25060096       101.6073       1432863.3    
       400   300.41585      0.0002         0.0019338118  -0.00078501119  0.3532471     -1601711.9      8411.3941      137.52183      137.97604      1321.0035      25065668       101.65657      1433629.8    
       500   299.78889      0.00025       -0.0004246186  -0.00077404007  0.43222356    -1601714.9      8393.8399      137.45685      138.06329      1321.0695      25070920       101.50971      1431630.2    
       600   299.63127      0.0003        -0.0021544538   0.002489285    0.49022334    -1601705.9      8389.4267      137.41167      138.15291      1321.1356      25080203       101.38608      1429958.1    
       700   300.71539      0.00035        0.0016229859  -0.0041131616   0.54044125    -1601723.6      8419.7812      137.33158      138.27008      1321.2016      25088097       101.49954      1431629.9    
       800   300.8791       0.0004        -0.0011121907   0.00076272009  0.58126951    -1601722.6      8424.3649      137.27012      138.35467      1321.2676      25093465       101.46102      1431158.2    
       900   300.10955      0.00045        0.00053372607 -0.0014045552   0.65292727    -1601737        8402.8182      137.16559      138.50741      1321.3337      25103292       101.40153      1430390.5    
      1000   300.09113      0.0005         0.00074850317 -0.0008778962   0.69741815    -1601761        8402.3023      137.08807      138.65123      1321.3997      25116413       101.44533      1431079.8    
      1100   299.41304      0.00055       -0.00068331085  0.0022007138   0.7622643     -1601764.3      8383.3165      137.00732      138.80597      1321.4658      25130887       101.44359      1431126.8    
      1200   299.34815      0.0006         0.00039033672 -0.00063071895  0.8043312     -1601767.5      8381.4995      136.9228       138.92659      1321.5318      25138467       101.44695      1431245.8    
      1300   300.44102      0.00065       -0.0005294041   0.0024053276   0.84191797    -1601779        8412.099       136.83584      139.06849      1321.5978      25149418       101.64696      1434139.2    
      1400   300.57662      0.0007        -7.1848784e-05 -0.00028908516  0.89280931    -1601753.2      8415.8955      136.73259      139.21691      1321.6639      25158517       101.80653      1436462.3    
      1500   300.47052      0.00075        0.00012398303  0.0010556859   0.96036554    -1601749        8412.925       136.63379      139.373        1321.7299      25169782       101.70233      1435063.9    
      1600   299.1657       0.0008        -0.0013919662   0.00032063637  1.0115262     -1601758.2      8376.391       136.54308      139.49089      1321.796       25175607       101.69137      1434980.9    
      1700   299.99983      0.00085        0.0010506688  -0.0021317074   1.0814993     -1601786        8399.7461      136.4297       139.61822      1321.862       25178924       101.77277      1436201.3    
      1800   300.0384       0.0009        -0.00071520517  0.00033667049  1.1158319     -1601783.4      8400.8259      136.31148      139.76128      1321.928       25184141       101.72001      1435528.5    
      1900   299.40144      0.00095        0.00049991264 -0.0006390616   1.1709833     -1601763.5      8382.9915      136.20649      139.81895      1321.9941      25176384       101.62775      1434298.1    
      2000   299.03103      0.001         -0.00127922     0.00010723535  1.2597146     -1601734.7      8372.6205      136.05607      140.00495      1322.0601      25183292       101.64747      1434648.2    
      2100   300.38809      0.00105       -0.00082847415 -0.0011891963   1.2958817     -1601744        8410.6171      135.94261      140.06456      1322.1262      25174263       101.68004      1435179.5    
      2200   300.27892      0.0011        -0.0007661445   0.0014048063   1.3307181     -1601753.7      8407.5604      135.82497      140.15889      1322.1922      25170675       101.75381      1436292.5    
      2300   299.18761      0.00115        0.0018965978   0.00022683021  1.3958312     -1601746.8      8377.0044      135.67842      140.27818      1322.2582      25166173       101.87816      1438119.5    
      2400   299.67343      0.0012         0.00051358385  0.00014398223  1.4518529     -1601754.4      8390.607       135.56615      140.37681      1322.3243      25164287       101.90595      1438583.6    
      2500   299.75483      0.00125        0.0014147487   0.00028480936  1.4863972     -1601754.3      8392.8862      135.43704      140.49188      1322.3903      25162185       101.93024      1438998.5    
      2600   300.55736      0.0013         0.0003826089  -0.00017441966  1.5069685     -1601781.1      8415.3564      135.3313       140.58674      1322.4564      25160772       101.90443      1438705.9    
      2700   299.40154      0.00135       -4.4402944e-05  0.00068499237  1.5614671     -1601794        8382.9945      135.23667      140.65812      1322.5224      25157201       101.71849      1436152.4    
      2800   298.7459       0.0014         6.0054096e-05 -0.0015054026   1.6084754     -1601783.4      8364.6369      135.13357      140.7801       1322.5884      25161078       101.67762      1435647.1    
      2900   299.35243      0.00145        0.00037885336 -0.00017857718  1.6806849     -1601767.5      8381.6194      135.01776      140.85298      1322.6545      25153786       101.69603      1435978.8    
      3000   300.17706      0.0015        -0.00085307608  2.5557537e-05  1.6943291     -1601770.1      8404.7084      134.95371      140.9193       1322.7205      25154946       101.70714      1436207.3    
      3100   300.05539      0.00155       -0.0020362085  -0.00010380248  1.7333679     -1601761.9      8401.3018      134.84524      140.99072      1322.7866      25148723       101.61983      1435046.1    
      3200   299.35356      0.0016        -0.0010031003   0.00084591032  1.7957409     -1601740.3      8381.651       134.74562      141.09177      1322.8526      25149409       101.6709       1435839      
      3300   300.31145      0.00165        0.0011729975  -0.0018725189   1.8385849     -1601756.2      8408.471       134.64493      141.17632      1322.9186      25146931       101.70317      1436366.4    
      3400   300.18079      0.0017        -0.00047470814  0.0015323957   1.9053244     -1601757.1      8404.8127      134.53173      141.29938      1322.9847      25148947       101.72388      1436730.7    
      3500   300.46356      0.00175        7.264973e-05  -0.001374177    1.9616232     -1601783        8412.7302      134.43136      141.37038      1323.0507      25144066       101.62594      1435418.9    
      3600   299.17908      0.0018         0.00037983362  0.0036056319   2.0086927     -1601758.5      8376.7657      134.36299      141.4388       1323.1168      25144696       101.59338      1435030.7    
      3700   299.84087      0.00185        0.0024401439  -0.0029984258   2.0280765     -1601769.2      8395.2951      134.27197      141.5469       1323.1828      25148122       101.57076      1434782.8    
      3800   300.26891      0.0019        -0.00071284538  0.0014946973   2.0647367     -1601745.9      8407.2801      134.25773      141.52386      1323.2488      25142618       101.56466      1434768.3    
      3900   300.24571      0.00195       -0.00055627848  0.0013113926   2.1113043     -1601744.2      8406.6306      134.21291      141.57899      1323.3149      25145269       101.49667      1433879.3    
      4000   299.85617      0.002          0.0013967595  -0.0027898599   2.1571435     -1601757.9      8395.7237      134.22293      141.53888      1323.3809      25141278       101.66867      1436380.9    
      4100   300.32629      0.00205       -0.0029978421   0.001292829    2.1715353     -1601784.5      8408.8865      134.18498      141.61323      1323.447       25148628       101.92528      1440078.2    
      4200   299.92376      0.0021         0.00067171493 -0.0013814309   2.2203271     -1601783.2      8397.6162      134.13659      141.62277      1323.513       25142506       102.01543      1441423.8    
      4300   299.9154       0.00215       -0.0011221082   0.0012159954   2.2715436     -1601781.2      8397.3822      134.1371       141.59356      1323.5791      25138669       102.04776      1441952.6    
      4400   300.86536      0.0022         0.00034130621 -1.1578243e-05  2.2996157     -1601801.5      8423.9801      134.11564      141.60467      1323.6451      25137874       102.10013      1442764.6    
      4500   299.88842      0.00225        0.00048646705 -0.0011698834   2.3423848     -1601775.9      8396.6267      134.06596      141.67502      1323.7111      25142302       102.07995      1442551.4    
      4600   300.59033      0.0023         0.00027751216  0.0011747768   2.3809296     -1601806.2      8416.2795      134.07643      141.62925      1323.7772      25137395       102.02059      1441784.5    
      4700   300.1572       0.00235        0.0017079583  -0.0011432388   2.4312009     -1601818.5      8404.1523      134.03232      141.71673      1323.8432      25145901       101.97693      1441239.4    
      4800   299.45287      0.0024        -0.00052669099  0.00020354009  2.4823865     -1601816.8      8384.4316      133.97546      141.76438      1323.9093      25144940       101.78394      1438583.6    
      4900   299.84413      0.00245        0.0009607773  -0.00071089219  2.5289577     -1601832.6      8395.3866      133.94246      141.79016      1323.9753      25144572       101.55143      1435368.9    
      5000   300.2677       0.0025        -0.0011516337   0.0021346109   2.5660842     -1601842.4      8407.2461      133.85567      141.9464       1324.0413      25157224       101.48511      1434503.1    
      5100   299.57347      0.00255        0.0011221993  -0.00095987564  2.5951655     -1601840.9      8387.8082      133.78487      142.03366      1324.1074      25160629       101.55548      1435569.4    
      5200   299.55522      0.0026        -0.00030579249  0.001601996    2.6475043     -1601863.9      8387.2974      133.75691      142.0412       1324.1734      25157960       101.49715      1434816.4    
      5300   299.83333      0.00265       -0.00057384965 -0.0013765079   2.6964967     -1601887.6      8395.0843      133.61917      142.24064      1324.2395      25168596       101.56751      1435882.7    
      5400   299.5956       0.0027        -0.00011668427 -0.0017759814   2.7505117     -1601891.8      8388.4279      133.52039      142.36404      1324.3055      25173065       101.61311      1436598.9    
      5500   299.15888      0.00275       -0.00038102069 -0.0001748559   2.8024909     -1601872.8      8376.2002      133.4281       142.45227      1324.3715      25172510       101.68741      1437721.2    
      5600   300.35027      0.0028         0.0001887409   0.0017910198   2.8233416     -1601866.5      8409.558       133.3125       142.54909      1324.4376      25169050       101.71271      1438150.5    
      5700   299.87431      0.00285        8.0549211e-05 -0.0035204372   2.8475461     -1601856.8      8396.2317      133.18127      142.67827      1324.5036      25168316       101.87128      1440464.5    
      5800   300.14055      0.0029        -0.0009163567   0.0028797339   2.9055194     -1601885.5      8403.6861      133.07268      142.75603      1324.5697      25162753       102.01658      1442591      
      5900   299.71056      0.00295       -0.0011074233   0.0011609445   2.926123      -1601896.9      8391.6467      132.94893      142.84115      1324.6357      25155596       102.05414      1443194      
      6000   299.62618      0.003          0.0026444554  -0.00026915376  3.012424      -1601895.8      8389.2841      132.81774      142.95266      1324.7017      25151646       102.09328      1443819.5    
      6100   299.9198       0.00305       -0.00015048911  0.00070125828  3.0781955     -1601888.5      8397.5052      132.70041      143.02415      1324.7678      25143249       102.25839      1446226.5    
      6200   300.15167      0.0031         0.00096701957 -0.00078492888  3.1420768     -1601878.3      8403.9974      132.57508      143.12019      1324.8338      25137623       102.3033       1446933.9    
      6300   299.91444      0.00315       -0.0009981352   0.0012140885   3.2182987     -1601862.1      8397.3551      132.42318      143.23031      1324.8999      25129391       102.36398      1447864.3    
      6400   300.40555      0.0032         0.00072110818 -0.0013998533   3.2825636     -1601845.7      8411.1059      132.29198      143.29394      1324.9659      25116899       102.51384      1450056.2    
      6500   301.68798      0.00325       -0.0015253761   0.00035503822  3.3361992     -1601845.2      8447.0128      132.16783      143.35252      1325.0319      25104840       102.5617       1450805.5    
      6600   300.84542      0.0033        -0.0025501532   0.0021049677   3.3935583     -1601844.4      8423.4219      132.01733      143.47309      1325.098       25098593       102.71953      1453110.6    
      6700   300.34968      0.00335        0.0016761153  -0.0030885531   3.4582047     -1601850.5      8409.5416      131.8565       143.549        1325.164       25082531       102.82763      1454712.3    
      6800   300.31615      0.0034         0.0018375618  -0.00082424223  3.5118715     -1601864.8      8408.6028      131.69065      143.6612       1325.2301      25071811       103.00387      1457278.2    
      6900   299.887        0.00345       -0.0020536976   0.001869092    3.5370584     -1601873.6      8396.5869      131.52964      143.7322       1325.2961      25054782       103.09572      1458650.4    
      7000   299.73734      0.0035        -3.382513e-05  -0.00072303085  3.6160754     -1601870.5      8392.3967      131.35833      143.86355      1325.3621      25046264       103.09866      1458764.6    
      7100   299.51531      0.00355       -0.00080959631  0.0024947085   3.6765024     -1601826.8      8386.1798      131.19768      143.96762      1325.4282      25034976       103.16005      1459705.9    
      7200   300.93401      0.0036         0.0030187607  -0.0021657469   3.7383496     -1601841.8      8425.9022      131.04032      144.07335      1325.4942      25024559       103.17578      1460001.3    
      7300   300.1955       0.00365        0.00022745249 -5.2390608e-05  3.7860596     -1601831.6      8405.2247      130.8499       144.24642      1325.5603      25019460       103.24943      1461116.2    
      7400   299.98692      0.0037         0.00051129805  0.00050010962  3.8380607     -1601850.5      8399.3847      130.68798      144.35096      1325.6263      25007855       103.33358      1462379.9    
      7500   299.19529      0.00375       -0.00052907821 -0.0018639515   3.8978616     -1601827.5      8377.2196      130.48776      144.52894      1325.6923      25001573       103.28184      1461720.5    
      7600   299.41497      0.0038         0.0017850446  -0.00034296911  3.9840235     -1601799.5      8383.3703      130.28059      144.69349      1325.7584      24991544       103.19917      1460623.3    
      7700   299.65277      0.00385        0.0016545101  -0.0029400098   4.0536888     -1601789        8390.0286      130.07887      144.86659      1325.8244      24983944       103.20132      1460726.5    
      7800   299.56954      0.0039        -0.00064838758  0.00065952274  4.1160469     -1601778.5      8387.6983      129.84355      145.02714      1325.8905      24967628       103.25475      1461555.6    
      7900   299.94799      0.00395        1.3716927e-05 -0.00046526848  4.1727678     -1601783.9      8398.2945      129.65184      145.16782      1325.9565      24956193       103.32618      1462639.5    
      8000   300.31565      0.004         -0.0020727504   0.0024581554   4.2027589     -1601785.7      8408.5886      129.43454      145.33016      1326.0225      24943468       103.45805      1464579.2    
      8100   301.48857      0.00405       -0.00065201546  0.0026615369   4.2608851     -1601815.6      8441.4295      129.22727      145.52641      1326.0886      24938396       103.56041      1466101.2    
      8200   299.49873      0.0041         0.0022551591  -0.0023899587   4.3079098     -1601777.8      8385.7157      129.01103      145.70962      1326.1546      24929252       103.47537      1464970.2    
      8300   299.94613      0.00415        0.001239628   -0.00058732066  4.3248095     -1601817.3      8398.2425      128.80158      145.87216      1326.2207      24917781       103.53384      1465870.9    
      8400   299.34001      0.0042        -6.1601661e-05 -0.00030170997  4.3767499     -1601808.9      8381.2715      128.56477      146.02922      1326.2867      24899990       103.52904      1465876      
      8500   299.94938      0.00425       -0.00072158219  0.00021036858  4.4359831     -1601804        8398.3334      128.35767      146.16847      1326.3527      24884823       103.48627      1465343.5    
      8600   299.76376      0.0043        -0.0021361359   0.0004666046   4.4961099     -1601783.9      8393.1362      128.1198       146.34404      1326.4188      24869780       103.45715      1465004      
      8700   299.56102      0.00435       -0.00033503341 -0.00031481026  4.5580896     -1601772.6      8387.4597      127.89227      146.46277      1326.4848      24846991       103.28202      1462596.9    
      8800   300.14155      0.0044        -0.001608141    1.2927818e-06  4.5862507     -1601789.5      8403.7142      127.65487      146.56826      1326.5509      24819968       103.27123      1462516.9    
      8900   299.20417      0.00445        0.00048266638  0.00092886484  4.6197389     -1601767        8377.4681      127.44282      146.67264      1326.6169      24797620       103.35933      1463837.5    
      9000   299.13642      0.0045         0.0018179498   0.001762489    4.6620307     -1601776.6      8375.5711      127.22008      146.80322      1326.6829      24777551       103.27954      1462780.2    
      9100   299.41914      0.00455        0.0010829098  -0.0011866763   4.6786195     -1601785.6      8383.4871      126.98201      146.95794      1326.749       24758482       103.29493      1463071.1    
      9200   299.86988      0.0046        -0.00062616735  0.00067450651  4.6979199     -1601771.8      8396.1075      126.7711       147.04808      1326.815       24733752       103.26409      1462707      
      9300   300.62691      0.00465        0.0001625982  -0.0017739688   4.7349494     -1601773.1      8417.3038      126.53298      147.16071      1326.8811      24707432       103.20435      1461933.6    
      9400   300.63236      0.0047        -0.00075696141 -0.00050332552  4.7716335     -1601784.6      8417.4563      126.28258      147.28382      1326.9471      24680394       103.18205      1461690.5    
      9500   299.3502       0.00475       -1.4348062e-05 -0.0010855236   4.8000477     -1601781.9      8381.5569      126.04304      147.40196      1327.0131      24654566       103.18458      1461799      
      9600   299.77918      0.0048        -0.00013005661  0.0020649913   4.8337035     -1601789.3      8393.568       125.79309      147.51792      1327.0792      24626257       103.23158      1462537.6    
      9700   300.15028      0.00485        0.001400823    0.0008419961   4.8901716     -1601775.8      8403.9584      125.56244      147.66963      1327.1452      24607607       103.33883      1464130.1    
      9800   299.87877      0.0049         0.00017743386 -0.00053141455  4.929071      -1601743.4      8396.3564      125.32804      147.81591      1327.2113      24587223       103.41758      1465318.7    
      9900   300.70575      0.00495       -0.00010649699 -0.00091697962  4.9687896     -1601759.4      8419.5112      125.09826      147.94922      1327.2773      24565501       103.34959      1464428.2    
     10000   300.30974      0.005          0.00097827734 -0.0012574353   5.0242411     -1601761.8      8408.4233      124.86553      148.07834      1327.3433      24542420       103.31435      1464001.7    
     10100   299.66296      0.00505       -0.00092713001  0.00054353881  5.0903422     -1601755.9      8390.3141      124.63317      148.24494      1327.4094      24525530       103.16994      1462028.1    
     10200   299.80215      0.0051        -0.00062792615 -0.00017396421  5.1592766     -1601759.1      8394.2112      124.39081      148.36977      1327.4754      24499669       103.06359      1460593.7    
     10300   299.43725      0.00515        0.00018861912  0.0014851318   5.2014026     -1601744.4      8383.9941      124.17603      148.51546      1327.5415      24482601       103.0312       1460207.2    
     10400   301.35866      0.0052         0.0012142167  -0.001034519    5.2338107     -1601766.5      8437.7922      123.95103      148.66714      1327.6075      24464414       102.93548      1458923.3    
     10500   300.22517      0.00525        0.00012443255 -0.0015375354   5.2738756     -1601721        8406.0554      123.70635      148.83916      1327.6735      24445589       102.81298      1457259.6    
     10600   299.93472      0.0053        -0.00037871417  0.00088745449  5.3220954     -1601734.9      8397.9229      123.47779      148.98928      1327.7396      24426248       102.75371      1456491.9    
     10700   299.47946      0.00535        0.00024643208  0.00039686589  5.3765832     -1601750.7      8385.1762      123.24748      149.16457      1327.8056      24410587       102.60293      1454426.9    
     10800   299.97649      0.0054        -0.0016695932   0.00011244165  5.4349785     -1601748.7      8399.0924      123.00934      149.31251      1327.8717      24388796       102.39215      1451511.3    
     10900   299.93555      0.00545        0.0017098635   0.00054450799  5.4823537     -1601726.8      8397.9462      122.81077      149.42898      1327.9377      24369633       102.46433      1452606.7    
     11000   300.87994      0.0055         0.00012743723 -0.00064595465  5.5092415     -1601745.4      8424.3882      122.60119      149.5634       1328.0037      24351142       102.37589      1451425.2    
     11100   299.13471      0.00555       -0.0011093496   0.00043564297  5.5568944     -1601729.4      8375.5234      122.38687      149.69393      1328.0698      24330998       102.25763      1449820.7    
     11200   299.33281      0.0056        -0.0014469944  -7.1744509e-05  5.5954269     -1601750.3      8381.0701      122.16661      149.80099      1328.1358      24305788       102.19373      1448986.8    
     11300   299.50333      0.00565       -0.0014061723   0.0015707408   5.6557674     -1601744.8      8385.8446      121.95829      149.89121      1328.2019      24280161       102.07268      1447342.3    
     11400   300.02559      0.0057         0.0028623504   0.00064948512  5.6910046     -1601745.9      8400.4673      121.7613       149.99972      1328.2679      24259699       102.04751      1447057.5    
     11500   299.71724      0.00575        0.00052698847 -0.00056177746  5.7350904     -1601730.4      8391.8337      121.57114      150.09066      1328.3339      24237701       101.92401      1445378      
     11600   300.32036      0.0058        -0.0016859397  -0.00097966073  5.7698106     -1601756        8408.7207      121.3618       150.19159      1328.4         24213439       101.84594      1444342.8    
     11700   299.23088      0.00585       -0.00015381709 -0.00073074535  5.8404118     -1601763.3      8378.216       121.14004      150.30408      1328.466       24188500       101.57094      1440514.4    
     11800   299.77561      0.0059        -0.00086787133  0.0013879414   5.8797912     -1601772.4      8393.4679      120.92021      150.38223      1328.5321      24158359       101.31802      1436998.8    
     11900   299.18866      0.00595        0.0029881548   0.00047443831  5.9396563     -1601731.3      8377.034       120.71621      150.48414      1328.5981      24135148       101.11476      1434187.3    
     12000   300.10901      0.006         -0.00079869425  0.0019282003   6.0136223     -1601736.3      8402.8029      120.49145      150.59491      1328.6642      24109141       101.03604      1433141.9    
     12100   300.4583       0.00605       -0.00087847538 -0.0020652837   6.0635359     -1601735.4      8412.5829      120.30915      150.66463      1328.7302      24085006       100.86101      1430730.3    
     12200   299.38081      0.0061         0.0014560246  -0.0028445005   6.1038761     -1601747.8      8382.414       120.09243      150.74237      1328.7962      24055221       100.68931      1428365.7    
     12300   299.73557      0.00615        0.0017063116   0.00058903241  6.1618138     -1601763.6      8392.347       119.88648      150.83859      1328.8623      24030490       100.60697      1427268.6    
     12400   299.95689      0.0062         0.00082353585 -0.00026099484  6.2046495     -1601741.3      8398.5438      119.65789      150.95093      1328.9283      24003729       100.54014      1426391.4    
     12500   299.79464      0.00625       -0.00079570966  0.0016107425   6.2474213     -1601708.8      8394.001       119.43887      151.08854      1328.9944      23982826       100.59586      1427252.9    
     12600   299.90369      0.0063         0.0011264122  -0.00083484593  6.2879859     -1601707.8      8397.054       119.2232       151.17962      1329.0604      23955142       100.64427      1428010.6    
     12700   300.29167      0.00635        0.00080544897 -0.0010051529   6.3401802     -1601730.8      8407.9173      119.01317      151.28643      1329.1264      23931026       100.67627      1428535.6    
     12800   299.64273      0.0064         0.00043831756 -0.00052293226  6.3906672     -1601746.7      8389.7476      118.81491      151.39621      1329.1925      23909684       100.66872      1428499.5    
     12900   298.97694      0.00645       -0.0012966046   0.0020791277   6.4259413     -1601731.5      8371.1059      118.62118      151.50031      1329.2585      23888299       100.54302      1426786.6    
     13000   300.21208      0.0065        -0.0021137778  -0.00042190154  6.4610574     -1601743.8      8405.6889      118.43398      151.60464      1329.3246      23868208       100.49945      1426239.3    
     13100   300.23925      0.00655       -0.00263755    -0.00048911964  6.511054      -1601731.4      8406.4495      118.2522       151.68872      1329.3906      23845976       100.46756      1425857.5    
     13200   299.86088      0.0066         0.0013067363   0.0013532549   6.5658188     -1601712.3      8395.8554      118.03873      151.79788      1329.4566      23821242       100.52719      1426774.6    
     13300   300.33277      0.00665        0.0020677757   0.00011970972  6.6109825     -1601715.5      8409.068       117.86475      151.89935      1329.5227      23803214       100.56571      1427392.3    
     13400   300.70393      0.0067         0.0019050546  -0.0015742921   6.6420878     -1601727.2      8419.4603      117.68001      152.0254       1329.5887      23786809       100.71795      1429624.1    
     13500   299.68015      0.00675       -0.0015414441  -0.00057813454  6.6759831     -1601726.1      8390.7951      117.47219      152.12557      1329.6548      23761627       100.66731      1428976.3    
     13600   299.6003       0.0068        -5.8727727e-06  0.00060220688  6.7388619     -1601732.5      8388.5595      117.28153      152.19282      1329.7208      23734727       100.65427      1428862.1    
     13700   300.05798      0.00685        0.00075423469 -0.00069604129  6.7849835     -1601722.6      8401.3742      117.06434      152.31787      1329.7868      23711416       100.58496      1427949.1    
     13800   300.33344      0.0069         7.4083792e-05  0.0019633669   6.8631696     -1601697.9      8409.0867      116.8709       152.39834      1329.8529      23685918       100.58348      1427999      
     13900   300.17878      0.00695       -0.0033611841  -0.001420522    6.9014627     -1601682.3      8404.7563      116.66619      152.46424      1329.9189      23655829       100.59423      1428222.7    
     14000   300.09669      0.007         -0.0029637915   0.001517199    6.9624315     -1601682.5      8402.458       116.47049      152.52421      1329.985       23626610       100.56705      1427907.6    
     14100   300.04031      0.00705        0.005950234   -0.00095950187  7.0304579     -1601689.2      8400.8795      116.2972       152.5217       1330.051       23592239       100.49041      1426890.3    
     14200   299.44005      0.0071         0.0010260468   0.00089606839  7.1247533     -1601657.1      8384.0725      116.12523      152.55679      1330.117       23563945       100.45977      1426526.1    
     14300   300.09188      0.00715       -0.00080823381 -0.0019101569   7.1807517     -1601630.2      8402.3233      115.94952      152.56997      1330.1831      23531490       100.44748      1426422.3    
     14400   299.95253      0.0072        -0.0029935912   0.0012650923   7.2479856     -1601617.1      8398.4216      115.74661      152.64011      1330.2491      23502276       100.34241      1425001      
     14500   299.85914      0.00725        0.00090342545  0.0020446515   7.2967997     -1601618.7      8395.8068      115.56715      152.61667      1330.3152      23463397       100.24839      1423736.5    
     14600   299.97197      0.0073         0.0023866672  -0.0020654542   7.3634435     -1601642.7      8398.9661      115.39189      152.65089      1330.3812      23434231       100.08674      1421511.3    
     14700   299.72935      0.00735        0.0015394758  -0.0011574651   7.431495      -1601643.5      8392.1728      115.19651      152.69527      1330.4472      23402517       100.00386      1420404.7    
     14800   300.16207      0.0074         6.4194967e-05  0.00052585035  7.5034043     -1601614.8      8404.2887      115.00957      152.71665      1330.5133      23368970       99.998758      1420402.7    
     14900   300.70539      0.00745        0.00027010963  0.00094103463  7.55966       -1601604        8419.5011      114.84011      152.69589      1330.5793      23332523       99.981093      1420222.3    
     15000   300.05951      0.0075         0.0003095259  -0.001406272    7.6266154     -1601593.2      8401.4169      114.6809       152.7201       1330.6454      23305028       99.829598      1418140.7    
     15100   299.6799       0.00755       -0.0019709832  -0.00043067749  7.7082052     -1601601.7      8390.7883      114.49677      152.72571      1330.7114      23269618       99.599763      1414946      
     15200   299.62689      0.0076        -0.0035676294   0.0027582455   7.7681781     -1601603.3      8389.3039      114.34075      152.70484      1330.7774      23235888       99.565232      1414525.6    
     15300   300.43108      0.00765        0.0047756275  -0.0006044122   7.8283058     -1601595.1      8411.8206      114.20189      152.65946      1330.8435      23201924       99.445631      1412896.6    
     15400   300.43122      0.0077         0.00089791234 -0.0020018778   7.8823005     -1601563.7      8411.8245      114.02549      152.70088      1330.9095      23173522       99.32837       1411300.6    
     15500   299.34881      0.00775       -0.001211342    0.0021355446   7.9847638     -1601535.3      8381.518       113.85963      152.69107      1330.9756      23139474       99.148536      1408815.3    
     15600   299.96672      0.0078        -0.00048816127 -0.0012212639   8.0533844     -1601564.2      8398.8189      113.69686      152.6867       1331.0416      23106880       99.021298      1407077.2    
     15700   299.20936      0.00785       -0.00066825574  0.00097951468  8.113439      -1601573.4      8377.6135      113.53891      152.6833       1331.1076      23075411       98.896684      1405376.2    
     15800   299.33355      0.0079         0.0012255994  -0.0018411282   8.1681594     -1601588.6      8381.0908      113.41017      152.69588      1331.1737      23052287       98.842786      1404680      
     15900   299.3206       0.00795       -0.0044604765   0.0012775576   8.2253351     -1601556.3      8380.7281      113.29142      152.67245      1331.2397      23025760       98.779208      1403846.1    
     16000   299.29299      0.008          0.00047276217 -0.0012286018   8.2889877     -1601537.4      8379.955       113.18014      152.62104      1331.3058      22996537       98.705097      1402862.4    
     16100   300.14817      0.00805        0.0041521782   0.001720959    8.3450781     -1601543.8      8403.8995      113.07048      152.62084      1331.3718      22975366       98.540559      1400593.4    
     16200   300.20598      0.0081        -0.0020846683   0.00084634792  8.4158734     -1601539.2      8405.5181      112.9987       152.58216      1331.4378      22956101       98.397393      1398627.9    
     16300   300.58522      0.00815       -0.0023691808  -0.0019098285   8.4744799     -1601544.8      8416.1366      112.92227      152.52281      1331.5039      22932787       98.345516      1397959.8    
     16400   299.52743      0.0082         0.00052839949  0.00024079291  8.5454662     -1601518.7      8386.5193      112.82663      152.47524      1331.5699      22907353       98.293449      1397289      
     16500   298.8106       0.00825        0.0047371466   0.000767471    8.6193333     -1601504.2      8366.4487      112.74428      152.44778      1331.636       22887646       98.195487      1395965.6    
     16600   299.94794      0.0083        -0.0031334782   0.00045833724  8.6822868     -1601514        8398.2932      112.67092      152.4271       1331.702       22870785       98.135494      1395182      
     16700   301.07838      0.00835       -0.0007512211  -0.00058524718  8.7609414     -1601519.1      8429.9444      112.58862      152.35564      1331.768       22844499       98.035966      1393836.1    
     16800   300.51411      0.0084         0.0012991231  -0.001255582    8.8242396     -1601510.1      8414.1453      112.50797      152.30597      1331.8341      22821824       97.985423      1393186.6    
     16900   300.06344      0.00845        0.0013476866   0.0013244705   8.8814279     -1601534.8      8401.5271      112.41388      152.29202      1331.9001      22801780       97.841379      1391207.5    
     17000   300.44673      0.0085        -0.0041135916   0.0031226939   8.9115632     -1601554        8412.2587      112.35087      152.24905      1331.9662      22783698       97.797921      1390658.5    
     17100   299.53091      0.00855        0.0016260726  -0.0042868163   8.9624747     -1601533        8386.6167      112.26793      152.19661      1332.0322      22760165       97.811499      1390920.6    
     17200   300.1245       0.0086         0.00052953821  0.0004769241   9.0118474     -1601543.3      8403.2366      112.18247      152.13863      1332.0982      22735303       97.699809      1389401.2    
     17300   300.37074      0.00865        0.001022837    0.0014472186   9.0615521     -1601527.9      8410.1311      112.10811      152.07112      1332.1643      22711277       97.657126      1388863      
     17400   300.72163      0.0087        -0.00056640417  0.0013174361   9.1272217     -1601518.6      8419.9558      112.03675      152.0129       1332.2303      22689256       97.598464      1388097.6    
     17500   300.50436      0.00875       -0.0025124092  -0.0051786273   9.1767286     -1601514.4      8413.8725      111.96111      151.94006      1332.2964      22664196       97.491831      1386649.7    
     17600   300.00809      0.0088         0.00010524648  0.0025455722   9.2395824     -1601529.1      8399.9774      111.85507      151.87002      1332.3624      22633416       97.424259      1385757.3    
     17700   299.60881      0.00885        0.0023245815   0.0019013311   9.2858238     -1601525.5      8388.7977      111.79564      151.79671      1332.4284      22611591       97.337411      1384590.6    
     17800   299.95796      0.0089         0.001545999   -0.00047380292  9.3505766     -1601510.5      8398.5736      111.74294      151.72313      1332.4945      22591098       97.415658      1385772.3    
     17900   299.81885      0.00895       -0.0047564435  -0.00285174     9.3957531     -1601483.4      8394.6787      111.66798      151.61911      1332.5605      22561583       97.370889      1385204.1    
     18000   299.45979      0.009          0.00014290099  0.0014185144   9.4934685     -1601465        8384.6254      111.56908      151.53687      1332.6266      22530490       97.240894      1383423.4    
     18100   300.09713      0.00905        0.0032943023   0.0024125497   9.5747421     -1601462.7      8402.4704      111.51722      151.42906      1332.6926      22505110       97.205064      1382982.2    
     18200   300.03859      0.0091         0.0015690281  -0.0014154602   9.6602504     -1601428.7      8400.8312      111.45595      151.35357      1332.7586      22482648       97.25218       1383721.1    
     18300   300.47777      0.00915       -0.003566238   -0.00074729227  9.7105052     -1601423.9      8413.1279      111.38915      151.262        1332.8247      22456691       97.252599      1383795.6    
     18400   299.91566      0.0092        -0.001351518    0.0023881327   9.7944113     -1601410.1      8397.3893      111.31989      151.15912      1332.8907      22428574       97.195555      1383052.4    
     18500   300.3692       0.00925        0.0043270559  -0.0010005753   9.8245532     -1601422.1      8410.0882      111.28183      151.03272      1332.9568      22403267       97.245316      1383829.1    
     18600   299.86341      0.0093        -0.00031953148 -0.0011333464   9.8625903     -1601410        8395.9264      111.23536      150.97835      1333.0228      22386960       97.342345      1385278.5    
     18700   300.03569      0.00935       -0.0015072133   0.0004753144   9.8966411     -1601422.6      8400.7501      111.16881      150.89684      1333.0888      22362595       97.374728      1385808      
     18800   299.58074      0.0094        -0.00045735716 -0.0012182154   9.9618007     -1601432.3      8388.0119      111.11322      150.83483      1333.1549      22343334       97.284069      1384586.3    
     18900   299.39617      0.00945        0.0014153292   0.0031391664   10.017843     -1601438        8382.8441      111.08429      150.74778      1333.2209      22325731       97.288609      1384719.5    
     19000   299.9822       0.0095         0.00017784928 -0.0030209467   10.047078     -1601416        8399.2523      111.09027      150.66646      1333.287       22315995       97.316831      1385189.8    
     19100   300.16217      0.00955       -0.0022951098   5.8453517e-05  10.110292     -1601399.2      8404.2914      111.05531      150.59318      1333.353       22299225       97.365529      1385951.6    
     19200   300.31508      0.0096        -0.00094246378  0.00027041331  10.144963     -1601405.3      8408.5729      111.02822      150.51446      1333.4191      22283236       97.378609      1386206.5    
     19300   299.84543      0.00965        0.0044907674   0.0012514713   10.181203     -1601406.5      8395.423       111.00291      150.46969      1333.4851      22272633       97.600603      1389435.4    
     19400   299.79667      0.0097        -0.00044023363  0.0006654803   10.224382     -1601407.7      8394.0577      111.00654      150.40036      1333.5511      22264201       97.702193      1390950.5    
     19500   299.9891       0.00975       -0.0022507215  -0.0026906549   10.286901     -1601375.9      8399.4456      110.98906      150.35402      1333.6172      22254939       97.842383      1393015.4    
     19600   300.42067      0.0098        -0.0010426259   0.00099855692  10.336427     -1601370.6      8411.5292      110.94391      150.28364      1333.6832      22236574       97.921403      1394209.4    
     19700   300.80678      0.00985        0.0030536964  -0.00047669998  10.395143     -1601396.2      8422.34        110.9249       150.24686      1333.7493      22228423       97.931562      1394423.1    
     19800   299.99805      0.0099        -7.3123171e-05  0.0038942797   10.444692     -1601389.9      8399.6961      110.89394      150.19523      1333.8153      22215683       98.050066      1396179.6    
     19900   300.11322      0.00995       -0.0024720254  -0.0024097343   10.494256     -1601387.7      8402.9208      110.90503      150.12346      1333.8813      22208387       98.186851      1398196.6    
     20000   300.28587      0.01           0.00053966218 -0.00080352813  10.544337     -1601379.7      8407.7549      110.85272      150.05345      1333.9474      22188657       98.329636      1400299.2    
     20100   300.24798      0.01005        0.00036995595 -4.3205853e-05  10.55035      -1601372.6      8406.6939      110.84651      149.96126      1334.0134      22174882       98.446563      1402033.7    
     20200   300.07674      0.0101         0.0019567698   0.0015970673   10.576707     -1601383.5      8401.8995      110.80401      149.90281      1334.0795      22158836       98.62729       1404677.1    
     20300   299.20006      0.01015       -0.0029395381   0.0012885944   10.597894     -1601391        8377.3531      110.77451      149.89069      1334.1455      22152241       98.777968      1406892.7    
     20400   299.02801      0.0102         0.00030739577 -0.0023801604   10.644095     -1601376.1      8372.5359      110.7355       149.7648       1334.2115      22126938       98.876105      1408360.2    
     20500   299.70654      0.01025        0.0010221559  -0.0031354752   10.699352     -1601366.6      8391.534       110.64568      149.75099      1334.2776      22108046       98.961649      1409648.5    
     20600   300.06744      0.0103         0.001424531    0.0035842418   10.765694     -1601354.3      8401.6389      110.59238      149.73858      1334.3436      22096659       99.002225      1410296.2    
     20700   300.48114      0.01035       -0.0017745205   0.0026716612   10.806219     -1601363.1      8413.2224      110.52985      149.71221      1334.4097      22081369       98.948394      1409599.2    
     20800   300.47617      0.0104        -0.00043487027 -0.0023180553   10.863314     -1601371.3      8413.0831      110.48371      149.67667      1334.4757      22068003       98.914942      1409192.4    
     20900   299.63626      0.01045       -0.00014947864 -0.0023416438   10.893768     -1601379.8      8389.5665      110.41035      149.63596      1334.5417      22048442       99.018675      1410740      
     21000   299.2195       0.0105         0.0011567733  -0.00077689462  10.9289       -1601374.3      8377.8975      110.32761      149.60388      1334.6078      22028286       99.135103      1412468.7    
     21100   299.49837      0.01055        0.0011095603   0.0045346047   10.991618     -1601354.5      8385.7055      110.27629      149.61934      1334.6738      22021406       99.17896       1413163.5    
     21200   299.69508      0.0106        -0.0011077283  -0.0019120464   11.056783     -1601331.5      8391.2133      110.20788      149.62183      1334.7399      22009200       99.288316      1414791.6    
     21300   299.96632      0.01065       -0.00035578802 -0.0020091282   11.120863     -1601308        8398.8077      110.12887      149.63201      1334.8059      21996006       99.308316      1415146.7    
     21400   299.50665      0.0107        -0.0006032375  -0.00079802343  11.18656      -1601283.7      8385.9373      110.03045      149.65852      1334.8719      21981328       99.318042      1415355.3    
     21500   299.89754      0.01075        0.0017350275   0.0052850245   11.255429     -1601293.4      8396.8821      109.95492      149.65818      1334.938       21967276       99.405863      1416676.9    
     21600   299.83743      0.0108         0.00026234959 -0.0022531187   11.308623     -1601296.4      8395.1989      109.90781      149.66694      1335.004       21960237       99.395174      1416594.6    
     21700   300.08576      0.01085       -0.00088544033 -0.0024053465   11.357131     -1601314.8      8402.152       109.83743      149.65582      1335.0701      21945630       99.40474       1416801      
     21800   299.11614      0.0109        -0.0015613726  -0.00067172998  11.411868     -1601289.3      8375.0033      109.76287      149.64019      1335.1361      21929527       99.400445      1416809.9    
     21900   300.45967      0.01095        0.00078690064  0.0036211974   11.479852     -1601288.2      8412.6213      109.69343      149.65655      1335.2021      21919132       99.395554      1416810.3    
     22000   300.37261      0.011          0.0016655333   0.00027417841  11.527149     -1601265        8410.1836      109.6402       149.64637      1335.2682      21908091       99.447902      1417626.6    
     22100   300.38387      0.01105        5.2103692e-05 -0.0022434691   11.579707     -1601269.7      8410.4989      109.57267      149.63894      1335.3342      21894592       99.448056      1417698.9    
     22200   300.227        0.0111        -0.0010665383   6.4469343e-05  11.634249     -1601278.2      8406.1067      109.492        149.68614      1335.4003      21886455       99.477827      1418193.4    
     22300   299.4965       0.01115       -0.001080852    0.0010202501   11.696764     -1601271.6      8385.6531      109.4289       149.65355      1335.4663      21870161       99.483583      1418345.6    
     22400   298.71758      0.0112         0.0026565623  -0.0013761258   11.755209     -1601280.3      8363.844       109.36518      149.65294      1335.5323      21858418       99.482138      1418395.2    
     22500   299.07448      0.01125        0.00067296158  1.4787595e-05  11.807373     -1601286.4      8373.837       109.31824      149.67387      1335.5984      21853172       99.521933      1419032.7    
     22600   299.08314      0.0113        -0.0031558988   0.00068871744  11.868711     -1601241.3      8374.0793      109.25781      149.70569      1335.6644      21846817       99.476675      1418457.5    
     22700   300.12476      0.01135        0.00070018584  0.0011294406   11.90602      -1601250.4      8403.2441      109.20755      149.64026      1335.7305      21828301       99.591303      1420162.3    
     22800   301.12917      0.0114        -0.00014273463 -0.00062544664  11.92181      -1601271.3      8431.3667      109.15525      149.635        1335.7965      21818159       99.65643       1421161.2    
     22900   299.93363      0.01145        0.0013404956  -0.00082486382  11.981705     -1601261        8397.8926      109.12859      149.58869      1335.8625      21807159       99.721063      1422153.2    
     23000   300.19121      0.0115         0.0010349826   0.00028845391  12.057647     -1601275.9      8405.1044      109.07813      149.6024       1335.9286      21800150       99.698826      1421906.4    
     23100   300.06565      0.01155       -0.0028130638  -0.00061558423  12.106967     -1601254.5      8401.5889      109.04319      149.5618       1335.9946      21788329       99.682748      1421747.4    
     23200   300.09055      0.0116        -0.00095500253 -2.5642355e-05  12.149034     -1601226.1      8402.2862      108.98513      149.5458       1336.0607      21775476       99.699256      1422053.1    
     23300   300.61977      0.01165        0.00072784034  0.0021020463   12.202696     -1601190.9      8417.1039      108.94584      149.4783       1336.1267      21758876       99.698566      1422113.6    
     23400   300.69155      0.0117         0.002915606   -0.0014961157   12.279488     -1601173.6      8419.1135      108.90332      149.48076      1336.1927      21751816       99.715118      1422420      
     23500   300.59846      0.01175       -0.00046210255 -7.5151165e-05  12.334654     -1601189.4      8416.5071      108.85769      149.41753      1336.2588      21734580       99.733661      1422754.8    
     23600   300.24635      0.0118        -0.0019132613  -0.00069633873  12.378791     -1601201.1      8406.6485      108.81016      149.39033      1336.3248      21722208       99.721594      1422653      
     23700   300.15038      0.01185       -0.0011135191   0.0027280649   12.458093     -1601202.6      8403.9612      108.76635      149.32785      1336.3909      21705453       99.722993      1422743.2    
     23800   299.94591      0.0119         0.0019958553  -0.00086995787  12.508308     -1601173.2      8398.2363      108.75724      149.26771      1336.4569      21695968       99.684189      1422259.9    
     23900   300.5081       0.01195        0.0012612629  -0.00074926473  12.570439     -1601159.4      8413.9771      108.73613      149.23361      1336.5229      21687872       99.709589      1422692.6    
     24000   300.44441      0.012         -0.0016766357  -0.0021242241   12.591526     -1601158.7      8412.1938      108.69651      149.22387      1336.589       21679625       99.825258      1424413.4    
     24100   299.19478      0.01205       -0.0015412225   0.0016247697   12.670598     -1601167.8      8377.2054      108.65408      149.20219      1336.655       21669085       99.775948      1423780.1    
     24200   299.6741       0.0121         0.00013536803  0.0030379244   12.750261     -1601161.4      8390.6257      108.619        149.15406      1336.7211      21656170       99.665147      1422269.3    
     24300   300.18125      0.01215        0.0030169489  -0.0017883151   12.814314     -1601142.4      8404.8255      108.63774      149.11275      1336.7871      21654979       99.655418      1422200.7    
     24400   301.10323      0.0122        -0.0012230991  -0.0010632352   12.871559     -1601154.4      8430.6403      108.62323      149.07124      1336.8531      21647128       99.697176      1422866.9    
     24500   300.76536      0.01225       -0.0021008806  -0.0014371253   12.929633     -1601152.7      8421.1803      108.62489      149.03327      1336.9192      21643013       99.73724       1423509.1    
     24600   299.88261      0.0123         0.0016115972  -0.0002075748   12.989236     -1601154.1      8396.4639      108.58833      149.03172      1336.9852      21636574       99.736705      1423571.7    
     24700   299.53347      0.01235        0.00076092876  0.0039617838   13.044441     -1601147.2      8386.6883      108.59415      149.00947      1337.0513      21635571       99.719635      1423398.4    
     24800   299.59304      0.0124         0.00029616816 -0.0018112547   13.110356     -1601128.9      8388.3563      108.62543      148.96317      1337.1173      21636146       99.732532      1423652.8    
     24900   300.32502      0.01245       -0.0015575829  -0.0017601629   13.145368     -1601134.3      8408.851       108.58773      148.98221      1337.1833      21632471       99.819811      1424969.1    
     25000   300.05771      0.0125        -0.001652848   -0.00021789476  13.199657     -1601119.8      8401.3665      108.58167      149.00269      1337.2494      21635305       99.847137      1425429.6    
     25100   300.47641      0.01255        0.0028787303   0.00098556256  13.266047     -1601118.5      8413.0899      108.57313      148.9403       1337.3154      21625614       99.734675      1423894.3    
     25200   300.29116      0.0126         0.00082513395  0.0012926208   13.304715     -1601083.7      8407.9031      108.58862      148.96652      1337.3815      21633575       99.755468      1424261.5    
     25300   301.2704       0.01265       -0.001259008    0.00018986274  13.360437     -1601091        8435.3208      108.60747      148.91651      1337.4475      21631134       99.827419      1425359.2    
     25400   300.31519      0.0127        -0.001742378   -0.0036695494   13.405491     -1601093.8      8408.5758      108.59901      148.87931      1337.5135      21625114       99.818008      1425295.2    
     25500   300.21769      0.01275        0.00073880152  0.00086152067  13.462166     -1601106.4      8405.8459      108.57662      148.8996       1337.5796      21624670       99.843284      1425726.5    
     25600   299.02934      0.0128         0.0019483003   0.0023029351   13.503357     -1601082.4      8372.5732      108.57521      148.87179      1337.6456      21621418       99.773215      1424796.3    
     25700   299.45404      0.01285        0.0015859146   0.0011029241   13.584549     -1601091.5      8384.4644      108.57244      148.86014      1337.7117      21620240       99.612825      1422576.1    
     25800   300.36135      0.0129        -0.0034972381  -0.0016721127   13.674167     -1601090.5      8409.8682      108.5613       148.85248      1337.7777      21617977       99.47483       1420675.5    
     25900   300.1313       0.01295       -0.00086758029 -0.00074983389  13.744206     -1601054.3      8403.427       108.54035      148.8252       1337.8437      21610912       99.291428      1418126.2    
     26000   300.04778      0.013          0.0010006232   0.00090790198  13.825154     -1601066.9      8401.0887      108.51051      148.80625      1337.9098      21603284       99.13206       1415920      
     26100   299.51784      0.01305        0.0021311567  -0.00063940298  13.910875     -1601069.2      8386.2506      108.50016      148.75804      1337.9758      21595293       98.989991      1413960.6    
     26200   301.07067      0.0131         2.8153425e-05  0.0034427366   13.980724     -1601106.4      8429.7288      108.48527      148.7621       1338.0419      21593984       98.814382      1411521.8    
     26300   299.91689      0.01315       -0.0026393792  -0.0008221449   14.051487     -1601070.6      8397.4237      108.468        148.7197       1338.1079      21585458       98.71338       1410148.7    
     26400   300.03361      0.0132         0.00032665855 -0.0028656043   14.157579     -1601061.7      8400.6919      108.43476      148.70906      1338.1739      21578365       98.505736      1407251.9    
     26500   300.55278      0.01325       -0.00016998467  0.0015823204   14.247539     -1601046.4      8415.2281      108.40261      148.71663      1338.24        21574129       98.372298      1405414.9    
     26600   300.72934      0.0133         0.0016321274  -0.0002728258   14.324438     -1601043        8420.1717      108.3686       148.73592      1338.306       21571223       98.271228      1404040.3    
     26700   299.19062      0.01335        0.0017438367  -0.00090459016  14.382018     -1601023.9      8377.0889      108.32853      148.74395      1338.3721      21565475       98.292019      1404406.6    
     26800   299.23511      0.0134        -0.0015489931  -0.001110942    14.426729     -1601036.1      8378.3344      108.2952       148.74846      1338.4381      21560557       98.328696      1405000      
     26900   300.61841      0.01345       -0.0013837702  -0.00046887139  14.479806     -1601062        8417.0659      108.24702      148.75885      1338.5042      21553535       98.288579      1404496      
     27000   300.07725      0.0135         0.00066071104 -0.00047021837  14.533692     -1601018.8      8401.9136      108.18195      148.79202      1338.5702      21546443       98.309711      1404867.3    
     27100   300.7399       0.01355        0.0018997064   0.0020391579   14.5895       -1600996.9      8420.4675      108.12878      148.82697      1338.6362      21541975       98.382293      1405973.9    
     27200   301.2004       0.0136         0.0002638919   0.00033427672  14.646376     -1601011.9      8433.3611      108.09868      148.84132      1338.7023      21539119       98.383438      1406059.6    
     27300   300.03315      0.01365       -0.0024491029   0.00053499053  14.704939     -1600998        8400.6788      108.03232      148.907        1338.7683      21536456       98.424366      1406714      
     27400   299.85931      0.0137        -0.00086338501 -0.00026131192  14.744846     -1601004.7      8395.8117      107.98215      148.90256      1338.8344      21526875       98.513519      1408057.6    
     27500   299.42702      0.01375        0.0014621811  -9.356112e-05   14.795522     -1600992.1      8383.7078      107.93299      148.93811      1338.9004      21523273       98.616245      1409595.4    
     27600   300.10636      0.0138         0.00065686906 -0.0015204942   14.82646      -1600978.5      8402.7287      107.86942      148.92982      1338.9664      21510460       98.643038      1410047.9    
     27700   300.21023      0.01385        0.00088118531  0.00047932627  14.895357     -1600943.2      8405.637       107.84875      148.98681      1339.0325      21515630       98.6116        1409668.1    
     27800   300.73027      0.0139        -0.00053561199 -0.00055412834  14.951584     -1600957.8      8420.1978      107.80485      148.97635      1339.0985      21506421       98.56876       1409125.2    
     27900   299.44842      0.01395       -0.0016480855  -0.0010463017   14.99023      -1600935.6      8384.307       107.76617      149.01162      1339.1646      21504854       98.603053      1409684.9    
     28000   299.78598      0.014         -0.00023064775  0.0031032201   15.077278     -1600942.3      8393.7584      107.71357      149.05575      1339.2306      21501786       98.56188       1409165.8    
     28100   300.28648      0.01405        0.00063300189  0.0018213833   15.141554     -1600930.5      8407.7721      107.66626      149.08241      1339.2966      21497246       98.436606      1407444.1    
     28200   300.44428      0.0141         2.9106374e-05  6.1491127e-05  15.226645     -1600893.9      8412.1904      107.65936      149.09468      1339.3627      21498698       98.34715       1406234.4    
     28300   300.48843      0.01415       -0.00089256272 -0.0021303552   15.290439     -1600894.5      8413.4263      107.62738      149.08159      1339.4287      21491484       98.323399      1405964.1    
     28400   299.88062      0.0142        -0.00028822113 -0.002029812    15.357589     -1600895.3      8396.4083      107.59456      149.10053      1339.4948      21488718       98.312788      1405881.7    
     28500   299.07625      0.01425        0.00043486371  0.0010518327   15.409909     -1600875.4      8373.8865      107.55875      149.09596      1339.5608      21481969       98.37026       1406772.9    
     28600   300.05276      0.0143         0.0026869542   0.0010011085   15.473164     -1600862.1      8401.228       107.53935      149.1232       1339.6268      21483075       98.334042      1406324.3    
     28700   300.01646      0.01435       -0.00068294214 -0.00058204031  15.530263     -1600833.2      8400.2116      107.52486      149.13797      1339.6929      21483367       98.228393      1404882.6    
     28800   299.95828      0.0144        -0.0027824298  -0.00030726418  15.602801     -1600834.5      8398.5826      107.50312      149.11766      1339.7589      21477158       98.181295      1404278.2    
     28900   299.75964      0.01445       -0.0031690112  -0.0018315216   15.682406     -1600840.8      8393.0209      107.47859      149.09666      1339.825       21470290       98.09577       1403124.1    
     29000   299.83956      0.0145         0.0045306868   0.0026279634   15.773514     -1600844.9      8395.2586      107.45489      149.14832      1339.891       21474054       97.957579      1401216.6    
     29100   300.14361      0.01455        0.0015682148   0.00036702417  15.84751      -1600829.4      8403.7718      107.44147      149.13032      1339.957       21469837       97.855303      1399822.6    
     29200   300.73706      0.0146        -0.00058279995 -0.0007556376   15.935894     -1600805.2      8420.3879      107.43774      149.11579      1340.0231      21468059       97.683925      1397439.9    
     29300   300.73597      0.01465       -0.0032234602  -0.0016547968   16.009087     -1600805.5      8420.3572      107.42249      149.11087      1340.0891      21465360       97.641692      1396904.6    
     29400   300.02921      0.0147         0.00050076647  8.8262631e-05  16.072096     -1600805.5      8400.5685      107.39155      149.06206      1340.1552      21453211       97.625976      1396748.5    
     29500   299.38129      0.01475        0.0019366266   0.0021701412   16.156111     -1600789.5      8382.4275      107.37284      149.02829      1340.2212      21445672       97.483311      1394776.1    
     29600   300.82853      0.0148        -0.00043461354  0.00043577912  16.210924     -1600818.9      8422.9488      107.36148      149.03004      1340.2872      21444710       97.429929      1394081.1    
     29700   300.38864      0.01485        0.00027664795  0.0020718088   16.27763      -1600797.7      8410.6324      107.35321      149.00519      1340.3533      21440538       97.367743      1393259.9    
     29800   299.92362      0.0149        -0.0020116397  -0.00042390658  16.350358     -1600799.3      8397.6123      107.35629      148.96705      1340.4193      21436723       97.187185      1390744.8    
     29900   299.43742      0.01495       -0.00083764126 -0.002950963    16.427584     -1600806.8      8383.999       107.3683       148.89617      1340.4854      21429975       97.124544      1389916.9    
     30000   299.41049      0.015          0.0010799861  -0.00016616147  16.495746     -1600781        8383.2451      107.35173      148.86729      1340.5514      21423568       97.12156       1389942.7    
     30100   300.22802      0.01505        0.003078254    0.0014872676   16.572051     -1600771.5      8406.1352      107.34289      148.82371      1340.6174      21416587       96.976393      1387933.5    
     30200   300.07542      0.0151         0.00071947917 -0.0001883464   16.630296     -1600763        8401.8624      107.35817      148.83238      1340.6835      21421940       96.847734      1386160.4    
     30300   300.33537      0.01515       -0.00095484106 -0.0021582859   16.689035     -1600777.5      8409.141       107.35158      148.84015      1340.7495      21422798       96.821955      1385859.7    
     30400   299.74219      0.0152        -0.002066963   -8.4541637e-05  16.768049     -1600770.8      8392.5324      107.33061      148.8444       1340.8156      21420280       96.738374      1384731.6    
     30500   299.54567      0.01525       -0.0011778442  -0.00072907614  16.829354     -1600762.3      8387.0298      107.33471      148.82161      1340.8816      21418873       96.730162      1384682.2    
     30600   299.82485      0.0153         0.0017111363   0.00022700816  16.888957     -1600738.2      8394.8467      107.30625      148.84449      1340.9476      21417540       96.694888      1384245.4    
     30700   300.85526      0.01535        0.0017376873   0.0032318305   16.963308     -1600741        8423.6972      107.30789      148.86341      1341.0137      21421645       96.575531      1382604.9    
     30800   300.54352      0.0154         0.00031134793 -0.0001573215   17.04256      -1600750        8414.969       107.32418      148.86398      1341.0797      21426034       96.439541      1380726      
     30900   299.85794      0.01545       -0.0026456458  -0.0011083498   17.108686     -1600750.8      8395.7732      107.29567      148.90022      1341.1458      21426612       96.405379      1380304.8    
     31000   299.91011      0.0155        -0.0012822033  -0.0020390889   17.155857     -1600752.3      8397.2339      107.28784      148.89599      1341.2118      21425495       96.416022      1380525.2    
     31100   299.52128      0.01555        0.0033442971  -0.00042077679  17.206452     -1600732.6      8386.3471      107.25651      148.95416      1341.2778      21428662       96.423479      1380700      
     31200   300.53118      0.0156        -0.00026298723  0.0014622666   17.263583     -1600722.5      8414.6233      107.22739      149.00559      1341.3439      21431296       96.404444      1380495.4    
     31300   300.73508      0.01565        0.00096787922 -0.00044424822  17.323955     -1600705.9      8420.3325      107.20908      149.06272      1341.4099      21436907       96.37122       1380087.6    
     31400   300.32828      0.0157        -0.0013837807   0.0010168461   17.387317     -1600705.4      8408.9422      107.17209      149.11789      1341.476       21438497       96.352698      1379890.2    
     31500   299.76778      0.01575       -0.0025899023  -0.00069971371  17.448949     -1600701.5      8393.2488      107.15404      149.18545      1341.542       21445653       96.350742      1379930.2    
     31600   300.19997      0.0158         0.0019460579  -0.00035723026  17.499633     -1600708.6      8405.3498      107.12177      149.21124      1341.608       21443958       96.383746      1380470.8    
     31700   300.31038      0.01585        0.00010667253  0.0015746939   17.561427     -1600703.4      8408.4412      107.06521      149.28319      1341.6741      21444025       96.353383      1380103.8    
     31800   299.56048      0.0159        -2.3411858e-05  0.0020495905   17.619513     -1600671.3      8387.4446      107.03794      149.31062      1341.7401      21443560       96.339324      1379970.4    
     31900   299.71956      0.01595        0.00041923418  0.00042986166  17.678685     -1600672.5      8391.8988      106.99049      149.38123      1341.8062      21445244       96.31101       1379632.7    
     32000   299.55686      0.016         -0.00067496275 -0.0024373425   17.734151     -1600674.9      8387.3432      106.89954      149.4767       1341.8722      21441764       96.302367      1379576.8    
     32100   299.2421       0.01605       -0.00071089978 -0.0010086403   17.778588     -1600663.2      8378.5302      106.84349      149.53369      1341.9382      21439746       96.369146      1380601.4    
     32200   300.33761      0.0161         0.0014843908  -0.00096144287  17.820492     -1600660.3      8409.2037      106.74856      149.58946      1342.0043      21429741       96.449982      1381827.5    
     32300   300.76042      0.01615        0.00043723492  0.00082532092  17.86511      -1600651.7      8421.0418      106.67477      149.669        1342.0703      21427369       96.49032       1382473.4    
     32400   299.90042      0.0162         0.0038329063  -0.00044804585  17.893074     -1600648.5      8396.9627      106.60365      149.72878      1342.1364      21422691       96.617135      1384358.5    
     32500   299.94203      0.01625       -0.0034290269  -0.00029679458  17.928472     -1600659.6      8398.1278      106.50119      149.82066      1342.2024      21416287       96.609041      1384310.6    
     32600   300.54558      0.0163         0.00077052294 -0.001314622    17.977008     -1600667.4      8415.0266      106.41075      149.88609      1342.2684      21408499       96.637426      1384785.5    
     32700   299.74925      0.01635       -0.00046304887 -0.00046608026  18.017477     -1600630.8      8392.73        106.29881      149.94857      1342.3345      21395946       96.696698      1385703      
     32800   300.89164      0.0164        -0.00017413591  0.0016651217   18.073806     -1600639.3      8424.7159      106.20739      150.05078      1342.4005      21393169       96.698324      1385794.5    
     32900   301.24603      0.01645        0.0015257088   0.00070285573  18.12947      -1600638.6      8434.6386      106.13563      150.08977      1342.4666      21385321       96.675313      1385532.9    
     33000   299.74061      0.0165        -0.00049213933 -0.0014855503   18.172312     -1600626.8      8392.488       106.05067      150.17582      1342.5326      21381504       96.62558       1384888.3    
     33100   299.78092      0.01655        0.00038820355  0.0018175164   18.241577     -1600627        8393.6167      105.97825      150.25092      1342.5986      21378640       96.63586       1385103.7    
     33200   299.96558      0.0166        -0.0011575246   0.00091575144  18.272473     -1600616.4      8398.787       105.91212      150.31593      1342.6647      21375595       96.712632      1386272.3    
     33300   300.40794      0.01665       -0.0014403189   0.0010333106   18.305772     -1600599        8411.1726      105.8577       150.39835      1342.7307      21377380       96.816146      1387824.3    
     33400   300.42717      0.0167         0.0017957336  -0.001481166    18.335318     -1600569.6      8411.7111      105.7862       150.48905      1342.7968      21376874       96.934369      1389587.4    
     33500   300.37286      0.01675        0.00050757417 -0.0016284202   18.381665     -1600578        8410.1904      105.74578      150.54585      1342.8628      21377823       97.028464      1391004.6    
     33600   300.55085      0.0168        -0.00014833042  0.00072940443  18.433841     -1600612.6      8415.1741      105.69346      150.62488      1342.9288      21379515       97.061747      1391550.2    
     33700   299.7105       0.01685       -0.0021739325   0.0012049177   18.45968      -1600594.9      8391.6451      105.63563      150.70908      1342.9949      21380812       97.121808      1392479.8    
     33800   299.78536      0.0169         0.00037158598  0.00055085202  18.504774     -1600582.7      8393.7409      105.57656      150.82387      1343.0609      21386184       97.186579      1393477      
     33900   300.30256      0.01695        0.00048808085  0.00079444446  18.534829     -1600570.5      8408.2221      105.53224      150.88227      1343.127       21386535       97.213017      1393924.6    
[...]
    991200   376.12341      0.4956        -0.0056533253  -0.0032841237   3.4870415     -1358653.6      10531.143      61.27759       37.876238      1975.3305      4584672        49.805741      1050317      
    991300   373.70169      0.49565        0.0060075063   0.0025481042   3.4676286     -1358443.4      10463.337      61.268253      37.878577      1975.3965      4584409.8      49.829974      1050863.2    
    991400   376.68657      0.4957        -0.003746391    0.0003570284   3.516964      -1358568.7      10546.911      61.284792      37.881362      1975.4625      4586137.8      49.857049      1051469.3    
    991500   383.50752      0.49575       -0.0016327202  -0.003200911    3.4970022     -1358664.7      10737.892      61.278969      37.868627      1975.5286      4584313.7      49.83536       1051047      
    991600   374.14899      0.4958         0.00046024066  0.0077835002   3.5011672     -1358264.4      10475.861      61.267792      37.884203      1975.5946      4585516        49.850982      1051411.6    
    991700   379.72984      0.49585        0.0053096977  -0.010354933    3.4884707     -1358293.1      10632.12       61.285835      37.88769       1975.6607      4587442        49.820422      1050802.2    
    991800   379.55927      0.4959        -0.0037044379   0.0057971536   3.5037902     -1358439        10627.344      61.277757      37.880714      1975.7267      4586146.1      49.861042      1051694.1    
    991900   384.16332      0.49595       -0.0031486849   0.0027619174   3.4779231     -1358338.1      10756.254      61.277781      37.881251      1975.7927      4586366.2      49.823905      1050945.9    
    992000   383.2609       0.496         -0.00063538772 -0.0010576519   3.5280938     -1358250        10730.987      61.277418      37.889734      1975.8588      4587519.4      49.853102      1051597      
    992100   382.62215      0.49605        0.0050004512  -0.0044879355   3.540562      -1358351.1      10713.102      61.263049      37.882257      1975.9248      4585691.9      49.837523      1051303.5    
    992200   378.9298       0.4961        -0.0014050559   0.002317941    3.5312067     -1358339.7      10609.72       61.241873      37.893038      1975.9909      4585564.7      49.894969      1052550.5    
    992300   383.80751      0.49615       -0.0014841224  -0.0032715291   3.5188028     -1358581.8      10746.291      61.266707      37.889246      1976.0569      4587118.3      49.835468      1051330.4    
    992400   381.21247      0.4962        -0.0021532868   0.00538029     3.5123619     -1358424.8      10673.632      61.279511      37.894464      1976.1229      4588862.2      49.810525      1050839.3    
    992500   381.61982      0.49625        0.0054625842  -0.0028332897   3.5153219     -1358523.7      10685.038      61.288772      37.871618      1976.189       4586942        49.867342      1052073.1    
    992600   385.1483       0.4963         0.0025676298   0.0052608585   3.516155      -1358375.4      10783.832      61.287531      37.881367      1976.255       4588183.2      49.823402      1051181.2    
    992700   386.04992      0.49635       -0.0025466115  -0.0068650901   3.4912552     -1358361.7      10809.077      61.29538       37.893989      1976.3211      4590453.2      49.82865       1051327.1    
    992800   388.25499      0.4964        -0.005364772    0.0077505616   3.5386795     -1358454.6      10870.817      61.292677      37.894242      1976.3871      4590434.8      49.803759      1050837      
    992900   390.59772      0.49645        0.00014017902 -0.0043193121   3.5109775     -1358467.1      10936.412      61.272182      37.892687      1976.4531      4588864.9      49.839543      1051627.2    
    993000   388.74422      0.4965         0.0040695676  -0.0053312798   3.5091471     -1358137.2      10884.515      61.278973      37.894717      1976.5192      4589772.7      49.857796      1052047.5    
    993100   383.51155      0.49655        0.00069812117  0.0077042362   3.513725      -1357869.3      10738.005      61.290689      37.893554      1976.5852      4590662.7      49.875972      1052466.2    
    993200   385.50857      0.4966         0.00041597335 -0.0090521867   3.4799852     -1357943.1      10793.92       61.292877      37.889783      1976.6513      4590523.1      49.835779      1051653.2    
    993300   388.2218       0.49665       -0.0031013906   0.00093259449  3.4880445     -1357731.3      10869.888      61.270613      37.892069      1976.7173      4589285.9      49.845121      1051885.5    
    993400   392.58966      0.4967         8.4393481e-05  0.0039016204   3.4843118     -1357916.6      10992.184      61.264096      37.89895       1976.7833      4589784.4      49.852619      1052078.8    
    993500   389.61434      0.49675       -0.00070184267  0.0051620498   3.4939283     -1357826.4      10908.878      61.277737      37.893214      1976.8494      4590264.8      49.867907      1052436.7    
    993600   386.14708      0.4968         0.0025122713  -0.009179233    3.5243084     -1357733.4      10811.797      61.276686      37.894452      1976.9154      4590489.4      49.880682      1052741.4    
    993700   381.15865      0.49685       -0.0029228612   0.0065921784   3.5244755     -1357648.7      10672.126      61.278548      37.899965      1976.9815      4591450.1      49.850236      1052134      
    993800   385.05305      0.4969        -0.0019195407  -0.0031617696   3.5109043     -1357575.5      10781.165      61.290163      37.875081      1977.0475      4589458.5      49.868361      1052551.7    
    993900   394.76865      0.49695        0.0022493498   0.0013886698   3.5345479     -1357862.6      11053.194      61.286124      37.892773      1977.1135      4591453.1      49.850132      1052202.1    
    994000   394.01122      0.497          0.0014706053  -0.0023195527   3.512774      -1357866        11031.987      61.28517       37.887939      1977.1796      4590949.2      49.852016      1052277      
    994100   389.41309      0.49705        0.0014315226   9.0319977e-05  3.5642949     -1357966.2      10903.243      61.29472       37.883461      1977.2456      4591275.4      49.842976      1052121.3    
    994200   390.30882      0.4971         0.001306362    0.0030308587   3.5424654     -1357945.2      10928.323      61.27145       37.891095      1977.3117      4590610.5      49.807099      1051399.1    
    994300   383.77781      0.49715       -0.0022787646  -0.0057105706   3.5290456     -1357931.4      10745.46       61.28747       37.881515      1977.3777      4590803.1      49.873587      1052837.8    
    994400   388.48968      0.4972        -0.0027275593   0.0040450067   3.5476935     -1357936.3      10877.388      61.280999      37.882246      1977.4437      4590560.3      49.881006      1053029.6    
    994500   385.3233       0.49725        0.0042576967  -0.00149698     3.5854741     -1357794.3      10788.732      61.286597      37.884042      1977.5098      4591350.6      49.826588      1051915.9    
    994600   386.85981      0.4973        -0.0037760375   0.0024008431   3.5571967     -1357978.2      10831.753      61.283235      37.890801      1977.5758      4592071.1      49.865478      1052772.1    
    994700   391.92317      0.49735        0.0030332023  -0.0017640664   3.5602763     -1358189.5      10973.523      61.265252      37.896824      1977.6419      4591606.7      49.859774      1052686.8    
    994800   381.66151      0.4974        -0.001722139    0.0020045333   3.5444904     -1358165.7      10686.205      61.274644      37.894533      1977.7079      4592186.4      49.839928      1052303      
    994900   380.31868      0.49745       -0.0032083575  -0.0022723545   3.5427575     -1358183.8      10648.607      61.284202      37.89235       1977.7739      4592791.4      49.833048      1052192.8    
    995000   388.5734       0.4975         0.0015061587  -0.0014912403   3.5205291     -1358220.2      10879.732      61.29719       37.893061      1977.84        4594004.4      49.837779      1052327.9    
    995100   392.44048      0.49755        0.0050689954   0.0033386616   3.5472578     -1357926.4      10988.007      61.276623      37.904684      1977.906       4594025        49.836404      1052334      
    995200   391.49716      0.4976        -0.0031165765  -0.0054976576   3.545081      -1357804.5      10961.595      61.290499      37.88229       1977.9721      4592503.8      49.854544      1052752.2    
    995300   385.01021      0.49765        0.00016474252  0.0087734242   3.5165546     -1357923.8      10779.966      61.267293      37.889869      1978.0381      4591836.9      49.83061       1052281.9    
    995400   382.29008      0.4977         0.0021953018  -0.0047585326   3.5393081     -1358094.6      10703.805      61.289008      37.881594      1978.1041      4592614.5      49.852159      1052772.1    
    995500   384.76154      0.49775        0.0010670394  -0.0014994442   3.5383183     -1358076.5      10773.004      61.266954      37.887214      1978.1702      4591796.2      49.88379       1053475.3    
    995600   383.70127      0.4978        -0.0075091366   0.0028106087   3.5509214     -1358128.9      10743.317      61.264244      37.889288      1978.2362      4591997.9      49.778652      1051290      
    995700   381.75187      0.49785        0.010982506   -0.0044168994   3.5203229     -1358151.1      10688.735      61.276387      37.889386      1978.3023      4593073.2      49.850944      1052851.9    
    995800   385.80465      0.4979        -0.0069605452   0.0067123437   3.5860534     -1358164.1      10802.21       61.284261      37.88441       1978.3683      4593213.5      49.878509      1053469.2    
    995900   383.50524      0.49795       -9.832469e-05  -0.0055554156   3.551578      -1358083.8      10737.828      61.271076      37.884999      1978.4343      4592449.9      49.873056      1053389.2    
    996000   380.03623      0.498          0.00059157201  0.0021235943   3.5815751     -1357918        10640.699      61.278841      37.883552      1978.5004      4593009.8      49.849718      1052931.4    
    996100   381.94516      0.49805        0.00038524953 -0.0029141155   3.6159361     -1357893.8      10694.147      61.278682      37.893163      1978.5664      4594316.5      49.847185      1052913.1    
    996200   382.61045      0.4981         0.0017338447   0.0043558599   3.595704      -1357688.4      10712.775      61.282614      37.885197      1978.6325      4593798.8      49.855706      1053128.2    
    996300   390.4921       0.49815       -0.00045622018 -0.0049177035   3.5442086     -1357980.1      10933.455      61.273386      37.894089      1978.6985      4594338.4      49.837291      1052774.4    
    996400   389.72871      0.4982        -0.0039894357  -8.9926545e-05  3.5630898     -1357687        10912.08       61.257915      37.904626      1978.7645      4594608.9      49.880332      1053718.7    
    996500   384.78857      0.49825        0.0019881128   0.0047149515   3.5267053     -1357830.2      10773.76       61.267222      37.89241       1978.8306      4593979.2      49.855201      1053223      
    996600   382.06944      0.4983         0.0030091671  -0.0024293108   3.5710117     -1357967.6      10697.627      61.267302      37.886997      1978.8966      4593482.3      49.893461      1054066.4    
    996700   378.99157      0.49835       -0.0071570536  -0.0028517061   3.5703303     -1357771.1      10611.449      61.280903      37.876018      1978.9627      4593323.9      49.843598      1053048.2    
    996800   382.8677       0.4984         0.001403766    0.0037335347   3.5546181     -1357996.3      10719.978      61.263106      37.888203      1979.0287      4593620.5      49.838958      1052985.3    
    996900   385.23758      0.49845        0.007893159   -0.0027264706   3.5921157     -1357727.9      10786.332      61.278782      37.880808      1979.0948      4594052.4      49.827541      1052779.2    
    997000   384.38825      0.4985        -0.0051027651   0.00096018082  3.5726679     -1357751        10762.552      61.266907      37.884829      1979.1608      4593803        49.842116      1053122.3    
    997100   386.3165       0.49855        0.0017611337   0.0037891117   3.5395374     -1357766.2      10816.541      61.276666      37.882704      1979.2268      4594430.3      49.847444      1053270      
    997200   386.4369       0.4986        -0.0013968127  -0.0023474845   3.5674442     -1357570.1      10819.912      61.284254      37.893197      1979.2929      4596425.4      49.827837      1052890.8    
    997300   383.68631      0.49865       -0.0025840978  -0.00097744754  3.5974854     -1357670.9      10742.898      61.265496      37.890563      1979.3589      4594852.4      49.824111      1052847.2    
    997400   388.11547      0.4987         0.005055235    0.00085194176  3.5488816     -1357615.1      10866.911      61.262604      37.880905      1979.425       4593617.6      49.844361      1053310.3    
    997500   391.13438      0.49875       -0.0010106081   0.00016917114  3.5481879     -1357714.2      10951.438      61.274791      37.891689      1979.491       4595992.6      49.854394      1053557.4    
    997600   390.08855      0.4988        -0.0032099066   0.0044132949   3.5823913     -1357966.6      10922.155      61.284246      37.883157      1979.557       4595820.2      49.831484      1053108.4    
    997700   386.11102      0.49885        0.0001383577  -0.0071271993   3.5613475     -1357911.3      10810.788      61.270439      37.877676      1979.6231      4594273.3      49.829727      1053106.4    
    997800   392.54937      0.4989         0.0020795123   0.0029231763   3.5459209     -1357806.7      10991.056      61.280385      37.882434      1979.6891      4595749.5      49.818332      1052900.7    
    997900   388.77206      0.49895        0.00013365184  0.00063032819  3.5811147     -1357578.3      10885.295      61.272877      37.891167      1979.7552      4596399.1      49.903588      1054737.8    
    998000   387.74914      0.499          0.0027998829  -0.0040770723   3.5647885     -1357434.6      10856.654      61.294062      37.883021      1979.8212      4597153.1      49.822983      1053069.3    
    998100   389.27069      0.49905       -0.0063579126   0.0068049594   3.5726099     -1357610.4      10899.256      61.291735      37.877959      1979.8872      4596517.8      49.824618      1053139      
    998200   387.63895      0.4991         0.0078323823  -0.008323468    3.5614445     -1357637.4      10853.569      61.275351      37.888156      1979.9533      4596679.5      49.869826      1054129.7    
    998300   386.95352      0.49915       -0.0069229734   0.0058571756   3.6033883     -1357676        10834.377      61.275605      37.888912      1980.0193      4596943.5      49.866492      1054094.4    
    998400   386.9798       0.4992         0.00086976745 -0.0034014528   3.6029099     -1357680.8      10835.113      61.270846      37.88584       1980.0854      4596367.1      49.86017       1053995.9    
    998500   385.3875       0.49925        7.6013739e-05  0.0011255793   3.5626835     -1357738.4      10790.53       61.262765      37.886737      1980.1514      4596023        49.844288      1053695.3    
    998600   385.91777      0.4993         0.0033614824  -0.0040320671   3.6105351     -1357547.8      10805.377      61.26982       37.876405      1980.2174      4595452        49.830901      1053447.4    
    998700   385.65278      0.49935       -0.0031224295   0.0058943215   3.6224862     -1357502.9      10797.957      61.281527      37.883487      1980.2835      4597342.9      49.832711      1053520.8    
    998800   387.90294      0.4994         0.0053480406  -0.0043426257   3.5808523     -1357696.6      10860.96       61.276696      37.873686      1980.3495      4595944.4      49.818312      1053251.5    
    998900   382.09069      0.49945       -0.0071020656   0.0037447065   3.574164      -1357476.1      10698.222      61.260879      37.879424      1980.4156      4595607.4      49.868904      1054356.3    
    999000   389.47664      0.4995         0.0040853917   0.0013070943   3.5576065     -1357607.3      10905.022      61.286036      37.885626      1980.4816      4598400.7      49.841444      1053810.9    
    999100   383.42331      0.49955       -0.0023105388  -0.0034234748   3.5597666     -1357465.4      10735.534      61.253409      37.888853      1980.5476      4596497.4      49.875635      1054569      
    999200   382.37878      0.4996         0.0017925684   0.0040549609   3.5876607     -1357374.2      10706.288      61.287914      37.873381      1980.6137      4597361.9      49.829698      1053632.8    
    999300   384.57465      0.49965       -0.0026559075   0.0016345042   3.5571099     -1357585        10767.771      61.27269       37.875131      1980.6797      4596585.5      49.839152      1053867.8    
    999400   389.71711      0.4997         0.0030204583  -0.0076783418   3.5799829     -1357681.8      10911.755      61.277642      37.884318      1980.7458      4598225.3      49.839943      1053919.7    
    999500   388.00575      0.49975       -0.0016639994   0.0042134058   3.571732      -1357400.6      10863.839      61.29548       37.873011      1980.8118      4598344.4      49.855424      1054282.2    
    999600   382.39946      0.4998        -0.0010040296  -0.0031830344   3.6049772     -1357637.6      10706.867      61.263774      37.881506      1980.8778      4597150        49.867745      1054577.9    
    999700   378.3677       0.49985        0.0059077648   0.0040793382   3.5976946     -1357816.7      10593.981      61.264218      37.885528      1980.9439      4597824.7      49.83614       1053944.7    
    999800   378.49167      0.4999        -0.00058619652 -0.00088837545  3.5786205     -1357917.9      10597.452      61.254734      37.886119      1981.0099      4597337.9      49.872094      1054740.2    
    999900   372.66719      0.49995       -0.0024878347  -0.0022856397   3.6024146     -1357792        10434.372      61.246675      37.883926      1981.076       4596620.2      49.849591      1054299.4    
   1000000   372.76082      0.5           -0.00080510398  0.0020525904   3.6040667     -1357714.1      10436.993      61.231619      37.88252       1981.142       4595472.9      49.804867      1053388.7    
   1000100   379.82215      0.50005        0.0018986589  -0.0023159336   3.5722594     -1357849.6      10634.705      61.258514      37.880055      1981.208       4597345.5      49.835414      1054069.9    
Loop time of 13432.1 on 4096 procs for 1000000 steps with 216612 atoms

Performance: 3.216 ns/day, 7.462 hours/ns, 74.448 timesteps/s
99.7% CPU use with 4096 MPI tasks x 1 OpenMP threads

MPI task timing breakdown:
Section |  min time  |  avg time  |  max time  |%varavg| %total
---------------------------------------------------------------
Pair    | 583.16     | 2105.3     | 4418.9     |1644.1 | 15.67
Neigh   | 54.058     | 592.34     | 1060       |1063.1 |  4.41
Comm    | 950.63     | 2656.6     | 5096.2     |1530.4 | 19.78
Output  | 17.144     | 17.194     | 18.281     |   0.5 |  0.13
Modify  | 5579.8     | 7973.7     | 11497      |1577.9 | 59.36
Other   |            | 87.01      |            |       |  0.65

Nlocal:        52.8838 ave          98 max           0 min
Histogram: 378 141 180 187 282 699 1232 816 170 11
Nghost:        2382.53 ave        3332 max         122 min
Histogram: 420 94 79 156 157 70 196 337 1789 798
Neighs:              0 ave           0 max           0 min
Histogram: 4096 0 0 0 0 0 0 0 0 0
FullNghs:      22036.2 ave       53473 max           0 min
Histogram: 660 246 172 394 788 1128 541 123 38 6

Total # of neighbors = 90260352
Ave neighs/atom = 416.69137
Neighbor list builds = 41277
Dangerous builds = 16


Total wall time: 3:53:29
