

##---------------INITIALIZATION-------------------------------

units          metal
dimension 	    3
boundary       p p p
atom_style 	atomic
newton 		on


##---------------ATOM DEFINITION------------------------------

read_data 	CNT_99_5_7.95.dat
Reading data file ...
  orthogonal box = (-41.7132 -41.7132 -0.33847) to (41.7132 41.7132 864.009)
  5 by 8 by 46 MPI processor grid
  reading atoms ...
  82568 atoms
  read_data CPU = 0.270 seconds


##---------------FORCE FIELDS---------------------------------
#Set the formula(s) LAMMPS uses to compute pairwise interactions. In LAMMPS, pair potentials are defined between pairs #of atoms that are within a cutoff distance and the set of active interactions typically changes over time

pair_style 	airebo 3.0

#Specify the pairwise force field coefficients for one or more pairs of atom types. The number and meaning of the coefficients depends on the pair style.

pair_coeff     * * /ascldap/users/bcma/CH.airebo C
Reading airebo potential file /ascldap/users/bcma/CH.airebo with DATE: 2011-10-25


##---------------SETTINGS-------------------------------------

timestep 	0.0005
variable   ts equal 0.0005


##---------------COMPUTES-----stresses in 3 directions and min/max on x and z atom coordinates --------------------------

compute    1 all stress/atom NULL
compute    2 all reduce sum c_1[1] c_1[2] c_1[3]
compute    3 all property/atom x y # true atoms position
compute    4 all reduce min c_3[1] c_3[2]
compute    5 all reduce max c_3[1] c_3[2]


variable   Lx equal lx
variable   Ly equal ly
variable   Lz equal lz
variable   Vol equal vol
variable   thickn equal 3.4
#making the damp parameter timestep dependent
fix		1 all npt temp 300 300 0.05 iso 0 0 0.05 #$(100.0*dt)x 0 0 0.5 y 0 0 0.5 z 0 0 0.5
thermo 	2000
##---------------RELAXATION--------------------------------------

run            50000
Neighbor list info ...
  update every 1 steps, delay 10 steps, check yes
  max neighbors/atom: 2000, page size: 100000
  master list distance cutoff = 12.2
  ghost atom cutoff = 12.2
  binsize = 6.1, bins = 14 14 142
  1 neighbor lists, perpetual/occasional/extra = 1 0 0
  (1) pair airebo, perpetual
      attributes: full, newton on, ghost
      pair build: full/bin/ghost
      stencil: full/ghost/bin/3d
      bin: standard
Per MPI rank memory allocation (min/avg/max) = 3.768 | 3.861 | 3.939 Mbytes
   Step          Temp          E_pair         E_mol          TotEng         Press          Volume    
         0   0             -612150.22      0             -612150.22     -14504.206      6015827.5    
      2000   231.03504     -612285.47      0             -609819.72     -6.8121853      5622124.5    
      4000   334.86442     -612533.97      0             -608960.08      1.1636481      5702376.5    
      6000   314.54964     -611675.27      0             -608318.2      -8.0270876      5767315.6    
      8000   298.82637     -611274.92      0             -608085.66     -2.0459661      5722877.2    
     10000   290.48481     -609338.16      0             -606237.92      64.809933      5942722.9    
     12000   302.75601     -610003.82      0             -606772.61      9.9945146      5662863.7    
     14000   326.65321     -609358.44      0             -605872.19      28.645703      5785627.4    
     16000   282.38625     -609585.53      0             -606571.73      5.571114       5710696.4    
     18000   335.7956      -610449.55      0             -606865.73     -2.1548137      5968023.7    
     20000   298.60149     -609404.83      0             -606217.97     -13.21316       5925447.7    
     22000   282.37859     -611823         0             -608809.28     -16.912378      5652262      
     24000   279.12601     -609994.53      0             -607015.52      1.4120386      5458878.3    
     26000   298.11781     -610479.48      0             -607297.78      3.8764461      5734194.8    
     28000   304.06767     -609935.3       0             -606690.1       94.326091      5655548.3    
     30000   301.52231     -609800.39      0             -606582.35      32.976175      5651972.3    
     32000   299.23162     -609734.97      0             -606541.39      31.494695      5671138.1    
     34000   302.99414     -609722.55      0             -606488.81      8.7851494      5682037.7    
     36000   299.62318     -609851.77      0             -606654.01     -15.795894      5665962.1    
     38000   303.03714     -610027.46      0             -606793.26     -18.857989      5681800.5    
     40000   300.31217     -610279.61      0             -607074.49     -36.259989      5678586.2    
     42000   300.10845     -610523.39      0             -607320.44     -26.494096      5666276.5    
     44000   299.02872     -610586.16      0             -607394.74     -8.6078791      5666226      
     46000   301.20153     -610605.1       0             -607390.49      2.9132366      5670181      
     48000   300.42846     -610591.88      0             -607385.52      31.16021       5683679.7    
     50000   298.38518     -610603.22      0             -607418.67      40.545701      5659618.7    
Loop time of 209.391 on 1840 procs for 50000 steps with 82568 atoms

Performance: 10.316 ns/day, 2.327 hours/ns, 238.788 timesteps/s
99.8% CPU use with 1840 MPI tasks x 1 OpenMP threads

MPI task timing breakdown:
Section |  min time  |  avg time  |  max time  |%varavg| %total
---------------------------------------------------------------
Pair    | 4.1205     | 40.862     | 109.91     | 332.2 | 19.51
Neigh   | 0.74133    | 2.0604     | 3.6532     |  42.1 |  0.98
Comm    | 12.936     | 61.566     | 124.65     | 339.6 | 29.40
Output  | 0.011153   | 0.011296   | 0.011773   |   0.0 |  0.01
Modify  | 55.929     | 100.94     | 166.7      | 263.9 | 48.20
Other   |            | 3.955      |            |       |  1.89

Nlocal:        44.8739 ave         228 max           0 min
Histogram: 932 84 24 509 32 199 49 9 1 1
Nghost:         835.74 ave        1412 max           0 min
Histogram: 187 25 23 59 339 153 317 275 258 204
Neighs:              0 ave           0 max           0 min
Histogram: 1840 0 0 0 0 0 0 0 0 0
FullNghs:      11161.8 ave       80704 max           0 min
Histogram: 1008 438 92 56 65 167 9 3 1 1

Total # of neighbors = 20537792
Ave neighs/atom = 248.73791
Neighbor list builds = 922
Dangerous builds = 7


##---------------DEFORMATION--------------------------------------
unfix              1
reset_timestep     0
fix		1 all npt temp 300 300 0.05 x 0 0 0.05 y 0 0 0.05 #$(100.0*dt)
fix        2 all ave/time 1 100 100 c_2[1] c_2[2] c_2[3]
fix        3 all ave/time 1 100 100 v_Lx v_Ly v_Lz v_Vol
fix        4 all  ave/time 1 100 100 c_4[1] c_4[2]
fix        5 all ave/time 1 100 100 c_5[1] c_5[2]
variable   srate equal 1.0e9
variable   srate1 equal "v_srate / 1.0e12"
fix		6 all deform 1 z erate ${srate1} units box remap x
fix		6 all deform 1 z erate 0.001 units box remap x
run            100
Per MPI rank memory allocation (min/avg/max) = 3.918 | 3.982 | 4.361 Mbytes
   Step          Temp          E_pair         E_mol          TotEng         Press          Volume    
         0   298.38518     -610603.22      0             -607418.67      40.545701      5659618.7    
       100   299.14374     -610593.65      0             -607401         281.92189      5651988.8    
Loop time of 0.756189 on 1840 procs for 100 steps with 82568 atoms

Performance: 5.713 ns/day, 4.201 hours/ns, 132.242 timesteps/s
99.8% CPU use with 1840 MPI tasks x 1 OpenMP threads

MPI task timing breakdown:
Section |  min time  |  avg time  |  max time  |%varavg| %total
---------------------------------------------------------------
Pair    | 7.7292e-05 | 0.10298    | 0.61429    |  35.9 | 13.62
Neigh   | 0          | 0          | 0          |   0.0 |  0.00
Comm    | 0.00012564 | 0.16901    | 0.57677    |  34.2 | 22.35
Output  | 0.00015818 | 0.00016821 | 0.00035768 |   0.0 |  0.02
Modify  | 0.11028    | 0.48002    | 0.7519     |  23.1 | 63.48
Other   |            | 0.004008   |            |       |  0.53

Nlocal:        44.8739 ave         220 max           0 min
Histogram: 927 82 25 481 62 146 105 8 3 1
Nghost:        836.497 ave        1405 max           0 min
Histogram: 188 24 24 54 338 140 323 271 253 225
Neighs:              0 ave           0 max           0 min
Histogram: 1840 0 0 0 0 0 0 0 0 0
FullNghs:      11162.8 ave       77918 max           0 min
Histogram: 1004 418 108 61 42 187 13 5 1 1

Total # of neighbors = 20539532
Ave neighs/atom = 248.75899
Neighbor list builds = 0
Dangerous builds = 0
##---------------THERMO-OUTPUTS--------------------------------------
variable cntdiameter equal ((f_5[1]-f_4[1])+(f_5[2]-f_4[2]))/2
#actual volume of cnt
variable   CorVol equal 3.14*v_cntdiameter*v_thickn*f_3[3]
#convertion factor of stress from barr to GPA
variable   ConvoFac equal 1/1.0e4
variable   sigmaxx equal f_2[1]*v_ConvoFac/v_CorVol
variable   sigmayy equal f_2[2]*v_ConvoFac/v_CorVol
variable   sigmazz equal f_2[3]*v_ConvoFac/v_CorVol
variable   StrainPerTs equal v_srate1*v_ts
variable   strain equal v_StrainPerTs*step
thermo 	100
thermo_style custom step temp v_strain v_sigmaxx v_sigmayy v_sigmazz pe ke lx ly lz vol v_cntdiameter v_CorVol
thermo_modify lost warn


##---------------DEFORMATION--------------------------------------
dump           1 all atom 5000 /ascldap/users/bcma/5thCNTRun/CNT_99_5_7.95/CNT_99_5_7.95.lammpstrj
run            1000000
Per MPI rank memory allocation (min/avg/max) = 4.918 | 4.982 | 5.361 Mbytes
   Step          Temp         v_strain      v_sigmaxx      v_sigmayy      v_sigmazz        PotEng         KinEng           Lx             Ly             Lz           Volume     v_cntdiameter     v_CorVol   
       100   299.14374      5e-05         -0.00202101    -0.0031153356  -0.68313456    -610593.65      3192.6482      81.68667       81.691353      846.98167      5651988.8      81.203109      734250.53    
       200   300.45551      0.0001         0.00055620122  3.4934311e-05 -0.65090932    -610597.59      3206.6482      81.665072      81.662315      847.02402      5648768.3      81.212592      734372.99    
       300   299.34636      0.00015        0.0013037492   0.0010032037  -0.65717091    -610586.49      3194.8107      81.631257      81.632409      847.06637      5644643.8      81.190419      734209.2     
       400   300.36505      0.0002         0.00022242944  0.0043488051  -0.6234163     -610593         3205.6828      81.610812      81.613732      847.10872      5642221        81.187269      734217.42    
       500   300.26548      0.00025        0.001258044   -0.00085875876 -0.59968329    -610597.68      3204.6201      81.577253      81.60372       847.15107      5639490.8      81.205438      734418.45    
       600   301.42397      0.0003        -0.0016641062  -0.0036760306  -0.58850933    -610629.28      3216.9842      81.552034      81.573573      847.19342      5635946.4      81.212964      734523.23    
       700   298.41875      0.00035       -0.0011943213   0.00066515782 -0.62970251    -610606.65      3184.9106      81.508127      81.523422      847.23577      5629730.4      81.248261      734879.2     
       800   299.95837      0.0004         0.0014893664  -8.5554934e-05 -0.65286459    -610619.26      3201.3424      81.472776      81.477213      847.27812      5624380.2      81.279376      735197.38    
       900   299.47429      0.00045       -0.0011767709   0.0020435488  -0.61608027    -610620.47      3196.176       81.417786      81.423832      847.32046      5617182.3      81.255752      735020.44    
      1000   297.73051      0.0005         0.0041678177   3.8793759e-05 -0.54306189    -610628.04      3177.5653      81.416698      81.362725      847.36281      5613172.3      81.275017      735231.45    
      1100   300.03957      0.00055       -0.0051280701   0.0001098867  -0.48872154    -610644.78      3202.209       81.399431      81.288958      847.40516      5607174        81.276388      735280.59    
      1200   301.57871      0.0006         0.0021740452  -0.0027669884  -0.45677932    -610650.76      3218.6357      81.383569      81.178144      847.44751      5598718.8      81.332722      735827.01    
      1300   300.011        0.00065       -0.002850461    0.00095315658 -0.38098907    -610627.88      3201.9041      81.376987      81.078324      847.48986      5591661.6      81.243961      735060.7     
      1400   300.96356      0.0007         0.0040508968  -0.00019814482 -0.32274853    -610638.94      3212.0705      81.314714      80.990204      847.53221      5581588.9      81.121432      733988.79    
      1500   298.86642      0.00075       -0.001228084    0.0015383377  -0.26786394    -610641.1       3189.6885      81.346612      80.875446      847.57456      5576145.2      81.129967      734102.7     
      1600   299.67573      0.0008        -0.0016475021   0.00045051315 -0.23468563    -610654.75      3198.3259      81.298314      80.798114      847.61691      5567783.9      81.042509      733347.97    
      1700   300.60434      0.00085        0.0025090804  -0.0032772875  -0.22924475    -610666.95      3208.2366      81.288012      80.673742      847.65926      5558786.8      80.840956      731560.69    
      1800   300.45881      0.0009        -0.0049701049   0.00077848849 -0.19757288    -610673.38      3206.6834      81.286528      80.529117      847.70161      5548997.4      80.771517      730968.82    
      1900   299.44658      0.00095        0.0044709924   0.00079765018 -0.19582827    -610676.47      3195.8803      81.250963      80.426346      847.74396      5539767.8      80.780999      731091.16    
      2000   298.85869      0.001          9.0173344e-05  0.0012914962  -0.23034864    -610684.35      3189.6059      81.280161      80.286821      847.7863       5532420.9      80.672191      730142.89    
      2100   299.52203      0.00105       -0.0022279604   0.00051398119 -0.22725153    -610707         3196.6855      81.261753      80.137066      847.82865      5521126.7      80.565851      729216.85    
      2200   298.56888      0.0011         0.001458015   -0.0031849867  -0.17235567    -610701.55      3186.5129      81.247979      79.964047      847.871        5508547.7      80.684163      730324.2     
      2300   299.79211      0.00115        0.00022664995  0.00060578883 -0.10750967    -610682.64      3199.568       81.250064      79.770425      847.91335      5495625        80.84321       731800.38    
      2400   301.26975      0.0012        -0.0026720192   0.0038926438  -0.093800519   -610690.03      3215.3383      81.244965      79.593449      847.9557       5483362.3      80.847767      731878.19    
      2500   300.065        0.00125        0.0028638984  -0.0024351467  -0.054906411   -610691.33      3202.4805      81.245093      79.416568      847.99805      5471458.4      80.657607      730193.22    
      2600   300.10024      0.0013        -0.001499193    0.0032582508  -0.0026016608  -610705.84      3202.8565      81.246351      79.201928      848.0404       5457027.7      80.600593      729713.52    
      2700   299.26571      0.00135       -0.00060415777 -0.00069340905  0.012946223   -610703         3193.9499      81.235862      79.002397      848.08275      5442849.1      80.458854      728466.66    
      2800   300.6664       0.0014         0.0011125369  -0.0018966501   0.029244898   -610705.69      3208.8989      81.247819      78.788306      848.1251       5429169.4      80.335908      727389.85    
      2900   301.28988      0.00145       -0.00092924683 -0.00041693842  0.081175295   -610696.73      3215.5532      81.26851       78.542407      848.16745      5413873.5      80.277326      726895.72    
      3000   301.85915      0.0015         0.00015640306  0.0013663891   0.10675764    -610705.42      3221.6287      81.256112      78.332672      848.2098       5398862.4      80.184594      726092.3     
      3100   299.98309      0.00155        0.0028706128  -0.0038761108   0.13294962    -610714.3       3201.6062      81.257323      78.10082       848.25214      5383231.6      80.057366      724976.42    
      3200   298.08764      0.0016        -0.0029519881   0.0042248777   0.19337664    -610702.05      3181.3768      81.297644      77.818561      848.29449      5366706        79.92666       723828.92    
      3300   301.11746      0.00165        0.0010835653   0.0024779324   0.23438303    -610723.91      3213.7129      81.308454      77.56665       848.33684      5350311.5      79.800606      722723.43    
      3400   301.30291      0.0017        -0.0010286287   6.29157e-06    0.29047312    -610715.94      3215.6922      81.335168      77.289365      848.37919      5333202.9      79.710088      721939.68    
      3500   301.4955       0.00175        0.0012218018  -0.0017576855   0.28204248    -610726.15      3217.7477      81.366087      77.014091      848.42154      5316493.8      79.57889       720787.39    
      3600   300.64025      0.0018        -0.0022685559  -0.0020239891   0.27515277    -610741.62      3208.6198      81.392853      76.736365      848.46389      5299328.7      79.490787      720025.34    
      3700   300.92549      0.00185        0.0020751605  -0.0030749361   0.32693146    -610754.16      3211.6642      81.400386      76.458049      848.50624      5280860.8      79.336984      718668.06    
      3800   300.0346       0.0019         0.00096988235  0.0025044887   0.3583194     -610759.08      3202.156       81.455674      76.154814      848.54859      5263752        79.21716       717618.47    
      3900   300.75645      0.00195       -0.00038231067  0.0017293207   0.38130011    -610773.5       3209.86        81.472975      75.859333      848.59094      5244704        79.057276      716205.83    
      4000   299.1548       0.002         -0.0020139459   0.0044431036   0.43316911    -610770.27      3192.7662      81.531135      75.533579      848.63329      5226171        78.93702       715152.08    
      4100   298.43358      0.00205        0.00029518634 -0.00023465706  0.5037313     -610771.45      3185.0689      81.567372      75.212377      848.67564      5206519.7      78.807897      714017.89    
      4200   300.13556      0.0021         0.00017990397  0.0017267353   0.5294069     -610776.17      3203.2335      81.631544      74.902124      848.71798      5189380.9      78.693482      713016.84    
      4300   302.27046      0.00215       -0.00068758716 -0.00092301008  0.55400915    -610787.32      3226.0185      81.686817      74.59066       848.76033      5171559.2      78.595727      712166.65    
      4400   301.25661      0.0022         0.0015906876  -0.00097522077  0.59998756    -610797.74      3215.198       81.776082      74.252522      848.80268      5153998.1      78.381316      710259.28    
      4500   300.62763      0.00225        9.6021033e-05 -0.0044957519   0.59219811    -610810.11      3208.4852      81.849491      73.948414      848.84503      5137753.4      78.272641      709309.9     
      4600   300.35529      0.0023         8.7736457e-05  0.00044863786  0.62054315    -610819.75      3205.5786      81.948091      73.592807      848.88738      5119461.6      78.161913      708341.81    
      4700   301.05949      0.00235       -0.0014614059   0.0012359559   0.6008044     -610843.81      3213.0942      82.025294      73.287262      848.92973      5103264        78.072836      707569.85    
      4800   300.52674      0.0024         0.0014627361  -0.00039500634  0.6373218     -610858.27      3207.4085      82.115738      72.948133      848.97208      5085503.9      77.842606      705518.49    
      4900   300.023        0.00245        0.00015568089  0.0012582573   0.67590709    -610869.69      3202.0322      82.204363      72.606797      849.01443      5067423.7      77.756935      704777.17    
      5000   300.12393      0.0025        -0.0015990905   0.0031251699   0.76863076    -610885.49      3203.1094      82.288944      72.249633      849.05678      5047936.3      77.683058      704142.68    
      5100   300.96518      0.00255       -0.00039395261  0.00097659591  0.82266477    -610904.67      3212.0877      82.389436      71.898853      849.09913      5029813.5      77.473762      702280.59    
      5200   300.20617      0.0026        -2.3584348e-05  0.0019878407   0.8642973     -610912.71      3203.987       82.491192      71.520692      849.14148      5009787.9      77.359283      701277.84    
      5300   301.12106      0.00265       -0.00076337141  0.0019202955   0.87059623    -610932.74      3213.7514      82.602816      71.153941      849.18382      4991091.4      77.235064      700186.69    
      5400   301.69591      0.0027         0.0002898516   0.00057492972  0.88155989    -610955.4       3219.8865      82.703076      70.779137      849.22617      4971074.8      77.20948       699989.66    
      5500   300.55018      0.00275       -0.00073141445  0.0036838724   0.94163556    -610961.56      3207.6586      82.800823      70.394967      849.26852      4950183.4      76.899703      697215.96    
      5600   300.59948      0.0028        -0.00077682969  0.0029765171   0.91878825    -610979.38      3208.1847      82.890737      70.024191      849.31087      4929703.4      76.877082      697045.62    
      5700   302.01063      0.00285       -0.0010243056   0.0021458238   0.91804986    -611011.75      3223.2455      82.985476      69.638621      849.35322      4908407.3      76.675483      695252.39    
      5800   301.74476      0.0029        -0.00012029912  0.0014801186   0.91654933    -611029.96      3220.4078      83.070829      69.273198      849.39557      4887916.5      76.626516      694843.02    
      5900   301.63209      0.00295       -1.4566355e-06  0.0036255908   0.92072282    -611051.6       3219.2054      83.162466      68.882696      849.43792      4865966.8      76.352551      692393.25    
      6000   300.55364      0.003         -0.0010846769   0.0028957449   0.94784628    -611062.18      3207.6955      83.264961      68.506769      849.48027      4845616.8      76.298864      691940.9     
      6100   301.51316      0.00305        0.00033767765  0.0029159532   1.0071529     -611095.43      3217.9361      83.35915       68.093518      849.52262      4822075.4      76.0638        689843.53    
      6200   298.77684      0.0031        -0.0015865827   0.0027314011   1.0780276     -611083.77      3188.7324      83.43561       67.706692      849.56497      4799319.2      75.927763      688644.1     
      6300   300.26708      0.00315       -0.0009753257   0.0034093737   1.1351383     -611111.15      3204.6372      83.510443      67.322279      849.60731      4776588.6      75.75626       687122.87    
      6400   300.52994      0.0032         0.0013041246   0.0029283131   1.1661647     -611138.79      3207.4425      83.592585      66.934471      849.64966      4753981.4      75.641065      686112.22    
      6500   301.109        0.00325       -0.001495513    0.0033284799   1.1626283     -611169.05      3213.6226      83.660606      66.523173      849.69201      4728849.6      75.469534      684590.45    
      6600   301.18729      0.0033         0.00042235261  0.0033247573   1.2519971     -611185.48      3214.4582      83.735161      66.114322      849.73436      4704208.7      75.2929        683022.23    
      6700   301.24479      0.00335       -0.00096033197  0.0040389464   1.2315041     -611208.78      3215.0719      83.776993      65.726225      849.77671      4679164.1      75.205701      682265.2     
      6800   300.09442      0.0034         0.00036419083  0.0035727181   1.2559136     -611214.98      3202.7944      83.835436      65.315693      849.81906      4653413.4      74.954863      680023.49    
      6900   301.53843      0.00345       -0.00088952032  0.0043744958   1.2576293     -611255.06      3218.2058      83.877774      64.91127       849.86141      4627166.3      74.749105      678190.56    
      7000   300.69431      0.0035        -0.00015534021  0.0043733297   1.3176096     -611265.21      3209.1968      83.912065      64.51345       849.90376      4600917.3      74.54403       676363.64    
      7100   301.00887      0.00355       -0.00072139937  0.0032306842   1.3346101     -611290.04      3212.554       83.955607      64.1118        849.94611      4574873.3      74.377864      674889.59    
      7200   300.9267       0.0036         0.00076494062  0.0042669519   1.36141       -611312.94      3211.677       83.989394      63.706236      849.98846      4547989.2      74.293087      674153.93    
      7300   300.88506      0.00365       -0.0015645228   0.004692005    1.4058375     -611335.88      3211.2326      84.009109      63.310863      850.03081      4521049.6      74.038044      671873.08    
      7400   301.97202      0.0037         0.00074066205  0.0036888689   1.4609993     -611371.72      3222.8333      84.030946      62.910104      850.07315      4493822.9      73.82708       669992.03    
      7500   299.80821      0.00375       -0.00026971211  0.0052737097   1.5421928     -611375.21      3199.7398      84.027061      62.51345       850.1155       4465505        73.639742      668325.2     
      7600   301.01725      0.0038         0.00068386629  0.0035889524   1.630162      -611407.45      3212.6434      84.015954      62.133316      850.15785      4437985.4      73.413788      666307.72    
      7700   300.45002      0.00385       -0.00071418166  0.0045086902   1.6681647     -611422.03      3206.5896      84.001179      61.753083      850.2002       4410270.5      73.303487      665339.76    
      7800   299.5583       0.0039         0.0012288268   0.0028588042   1.6994659     -611430.84      3197.0726      83.97824       61.374682      850.24255      4382267.3      73.104748      663568.96    
      7900   300.15077      0.00395        0.00016713212  0.0036606061   1.7224905     -611454.55      3203.3958      83.958532      60.99511       850.2849       4354359.9      72.884655      661604.13    
      8000   300.14087      0.004         -0.00017087364  0.0056862895   1.7777549     -611470.81      3203.2902      83.918712      60.61579       850.32725      4325443.8      72.770585      660601.57    
      8100   301.93054      0.00405        0.00080512968  0.0038780466   1.7973734     -611504.99      3222.3906      83.878026      60.236489      850.3696       4296507.5      72.422228      657471.98    
      8200   300.7143       0.0041        -1.7483731e-06  0.0042290142   1.7808826     -611508.98      3209.4102      83.816578      59.858209      850.41195      4266610.5      72.303681      656428.46    
      8300   301.4765       0.00415        0.00082327848  0.0053809021   1.7975429     -611531.52      3217.5448      83.760806      59.470641      850.4543       4236375.5      72.042338      654088.36    
      8400   302.15261      0.0042         0.0012865295   0.004725254    1.8035637     -611558.27      3224.7607      83.687878      59.092933      850.49665      4206013.9      71.94114       653202.09    
      8500   301.34453      0.00425       -0.00031400196  0.0053532407   1.7823168     -611572.45      3216.1364      83.620988      58.701096      850.53899      4174992.8      71.613197      650256.85    
      8600   300.1429       0.0043         0.0020047723   0.0055441519   1.8164244     -611583.09      3203.3118      83.519629      58.30787       850.58134      4142205        71.43829       648700.97    
      8700   300.50324      0.00435        0.0014282245   0.0061319081   1.8628302     -611601.04      3207.1576      83.410225      57.925263      850.62369      4109838.8      71.050169      645208.73    
      8800   298.78603      0.0044         0.00031638159  0.0065094096   1.9446896     -611590.24      3188.8305      83.284655      57.54407       850.66604      4076849.4      70.84328       643361.99    
      8900   299.42319      0.00445        0.0022245306   0.0063090942   2.0071439     -611584.05      3195.6307      83.168356      57.15376       850.70839      4043743.8      70.567206      640886.74    
      9000   301.73579      0.0045         0.0010716068   0.006405184    2.0290466     -611595.86      3220.3122      83.04778       56.768972      850.75074      4010895.9      70.406228      639456.58    
      9100   301.09114      0.00455        0.001582823    0.0069881643   2.0760981     -611604.62      3213.432       82.908121      56.385877      850.79309      3977327.6      70.046981      636225.43    
      9200   300.48745      0.0046         0.0023460789   0.0073331845   2.1014952     -611617.54      3206.9891      82.766924      56.002026      850.83544      3943720.5      69.805836      634066.71    
      9300   300.66875      0.00465        0.0013237391   0.0072773254   2.1345533     -611636.47      3208.9241      82.635837      55.610415      850.87779      3910135        69.558308      631849.79    
      9400   300.39896      0.0047         0.0019641371   0.0080409317   2.1986949     -611648.58      3206.0447      82.513361      55.230418      850.92014      3877853.6      69.248095      629063.2     
      9500   299.06344      0.00475        0.0017014542   0.0068836617   2.2398033     -611650.43      3191.7912      82.377029      54.854644      850.96249      3845297.5      68.970145      626569.43    
      9600   299.67906      0.0048         0.0019377667   0.0081219533   2.302671      -611658.04      3198.3614      82.243179      54.472319      851.00483      3812481.8      68.768164      624765.59    
      9700   298.81586      0.00485        0.0011755336   0.0088067143   2.3684277     -611634.56      3189.1488      82.111272      54.087361      851.04718      3779655.5      68.58099       623096.11    
      9800   300.84311      0.0049         0.0023179511   0.0084798035   2.4553199     -611638.04      3210.7849      82.001797      53.693297      851.08953      3747302        68.390928      621400.22    
      9900   299.81576      0.00495        0.0016950706   0.0087591742   2.4865422     -611636.81      3199.8204      81.887746      53.310095      851.13188      3715568.1      68.085195      618653.1     
     10000   299.11699      0.005          0.0013089203   0.0099019241   2.5379402     -611643.31      3192.3627      81.774109      52.927695      851.17423      3683980        67.825174      616321.1     
     10100   299.2947       0.00505        0.0018638484   0.006681257    2.6021959     -611643.02      3194.2593      81.670651      52.593865      851.21658      3656294.5      67.682274      615053.18    
     10200   298.08042      0.0051         0.00019775732  0.0054992091   2.6542413     -611602.64      3181.2998      81.595042      52.285541      851.25893      3631675.7      67.32833       611867.2     
     10300   297.43694      0.00515        0.0013105722   0.0051249764   2.6934897     -611566.94      3174.4321      81.513866      52.021401      851.30128      3609913.7      67.183699      610583.2     
     10400   297.52957      0.0052         0.0005256727   0.00098401408  2.7648957     -611531.69      3175.4207      81.439916      51.80645       851.34363      3591914.9      67.043999      609343.88    
     10500   298.84553      0.00525       -3.3016304e-05 -0.00060353002  2.8426293     -611507.72      3189.4655      81.391217      51.646784      851.38598      3578881.5      66.885494      607933.52    
     10600   300.19078      0.0053        -0.0011246124  -0.0013440305   2.872224      -611496.41      3203.8228      81.385325      51.513397      851.42833      3569557.5      66.776823      606975.98    
     10700   300.11667      0.00535        0.00053773201 -0.0026206367   2.9123944     -611472.83      3203.0319      81.417875      51.422182      851.47067      3564839.3      66.772962      606971.07    
     10800   302.15773      0.0054         0.003038063   -0.0041685546   2.9485187     -611480.4       3224.8153      81.483644      51.399925      851.51302      3566352.2      66.849852      607700.23    
     10900   301.12158      0.00545       -0.0028541397   0.00016817502  2.9867059     -611490.04      3213.7569      81.529426      51.420821      851.55537      3569984.1      66.795023      607232.01    
     11000   302.26082      0.0055        -0.0017144578   0.0017876011   3.0299214     -611527.27      3225.9156      81.618926      51.483487      851.59772      3578436.5      66.861581      607867.31    
     11100   302.37208      0.00555       -0.00093711345 -0.001282944    3.0242263     -611556.5       3227.103       81.726421      51.599143      851.64007      3591377.5      66.998808      609145.2     
     11200   299.95174      0.0056         0.00070288745 -0.0027100921   3.0215551     -611556.76      3201.2717      81.838343      51.752377      851.68242      3607155.1      67.066203      609788.26    
     11300   300.43081      0.00565       -0.00098357094 -0.00042093507  3.0752119     -611583.14      3206.3846      81.993487      51.915433      851.72477      3625560.2      67.19489       610988.71    
     11400   301.17016      0.0057         0.0010838276   0.00036113605  3.0924477     -611615.63      3214.2754      82.148294      52.102686      851.76712      3645688.3      67.394757      612836.53    
     11500   300.3236       0.00575        0.00014646136  0.0033115287   3.0976334     -611629.44      3205.2403      82.320388      52.295951      851.80947      3667059.3      67.58465       614593.82    
     11600   298.11748      0.0058         0.0033610192   0.0036043915   3.1421561     -611622.32      3181.6953      82.479623      52.473659      851.85182      3686821.2      67.818811      616753.88    
     11700   299.41502      0.00585        0.00024399207  0.001514388    3.1724599     -611636.56      3195.5434      82.646812      52.672357      851.89417      3708467.7      67.909851      617612.51    
     11800   299.65302      0.0059        -0.0030139655  -0.0060615505   3.210129      -611639.44      3198.0835      82.797491      52.868754      851.93651      3729267        68.203739      620316.14    
     11900   299.60231      0.00595       -0.0017568308  -0.002139787    3.2599985     -611636.93      3197.5423      82.985019      53.045574      851.97886      3750400.7      68.269756      620947.43    
     12000   300.39971      0.006         -0.00023130392  0.0003892528   3.2800651     -611627.21      3206.0526      83.142101      53.21665       852.02121      3769805.4      68.512463      623185.95    
     12100   299.92231      0.00605        0.00062896962  0.0024430416   3.3086774     -611608.19      3200.9576      83.310659      53.39581       852.06356      3790353.7      68.582805      623856.78    
     12200   298.96886      0.0061         0.0013163031   0.0026387081   3.3702554     -611586.45      3190.7818      83.468416      53.585614      852.10591      3811219.5      68.772347      625612.03    
     12300   300.54735      0.00615        0.0037404714  -0.0052749121   3.3988296     -611589.09      3207.6284      83.651714      53.737449      852.14826      3830602.2      69.003096      627742.31    
     12400   298.4783       0.0062        -0.0052497279   0.0021705932   3.4296519     -611555.89      3185.5462      83.80418       53.894207      852.19061      3848969.8      69.086913      628536.06    
     12500   299.53758      0.00625        0.00054706068  0.00012788659  3.4823171     -611547.88      3196.8515      83.965722      54.073427      852.23296      3869405.5      69.280811      630331.42    
     12600   300.15935      0.0063        -0.0011347199  -0.0034104676   3.4907446     -611540.89      3203.4874      84.123908      54.232855      852.27531      3888318.3      69.444008      631847.62    
     12700   299.02431      0.00635        0.00071018631  0.0025062273   3.5628658     -611517.16      3191.3735      84.274278      54.371672      852.31766      3905433.2      69.751723      634678.95    
     12800   298.91788      0.0064         0.00041902657  0.0059330126   3.6117364     -611499.83      3190.2376      84.432359      54.531837      852.36001      3924480        69.814324      635280.12    
     12900   299.72879      0.00645        0.0033008086  -0.0070114639   3.6816802     -611496.6       3198.8922      84.558442      54.664557      852.40235      3940101.8      69.891639      636015.25    
     13000   299.52361      0.0065        -0.0027522563   0.0019374268   3.7501977     -611485.36      3196.7024      84.695073      54.776784      852.4447       3954766.9      70.061236      637590.27    
     13100   300.33608      0.00655       -0.00038652584  0.00098368879  3.7766617     -611484.22      3205.3735      84.807475      54.905648      852.48705      3969528.7      70.280722      639619.47    
     13200   298.89828      0.0066         0.0015681821  -0.0022381288   3.8296873     -611456.17      3190.0285      84.925555      54.998557      852.5294       3981979.8      70.411075      640837.64    
     13300   298.97603      0.00665       -0.0009474009   0.0020290297   3.8849501     -611440.18      3190.8583      85.033772      55.110335      852.57175      3995355.5      70.566051      642280.04    
     13400   300.85345      0.0067        -0.001960564    0.0039771272   3.9301799     -611452.83      3210.8953      85.164147      55.198941      852.6141       4008114        70.636868      642956.54    
     13500   299.58603      0.00675        0.0014046335  -0.0046113326   3.9703082     -611442.99      3197.3686      85.284744      55.287621      852.65645      4020437.7      70.767419      644176.84    
     13600   299.35044      0.0068         0.00046481116  0.0018276727   4.0147815     -611443.4       3194.8542      85.406266      55.338266      852.6988       4030054.6      70.891536      645338.7     
     13700   300.58508      0.00685        0.00034274039 -2.9723532e-05  4.0420799     -611436.76      3208.0311      85.494359      55.421265      852.74115      4040462.8      70.891555      645370.92    
     13800   301.01475      0.0069        -0.00058456141 -0.0014944465   4.0515892     -611427.7       3212.6168      85.597155      55.442499      852.7835       4047071.8      70.994005      646335.69    
     13900   299.78691      0.00695        0.0001806328   0.0012975169   4.0831923     -611415.19      3199.5125      85.687091      55.473052      852.82585      4053757.9      71.093071      647269.74    
     14000   299.90463      0.007          0.0012994213   4.3835385e-05  4.0757975     -611423.12      3200.7689      85.784296      55.491665      852.86819      4059919.9      71.131498      647651.76    
     14100   298.72124      0.00705       -0.00064610445 -0.0021927148   4.0664495     -611433.66      3188.139       85.848665      55.492617      852.91054      4063237.7      71.238267      648656.1     
     14200   297.97854      0.0071        -0.0023756803   0.004633286    4.1049107     -611419.76      3180.2124      85.909616      55.489081      852.95289      4066065.3      71.243486      648735.83    
     14300   299.86225      0.00715        0.00071526338 -0.0061952913   4.1514822     -611413.34      3200.3165      85.988762      55.47181       852.99524      4068746.6      71.230445      648649.28    
     14400   300.81723      0.0072         0.0008491498   0.0052621175   4.1834488     -611405.41      3210.5087      86.071879      55.443573      853.03759      4070808.4      71.363337      649891.71    
     14500   299.16348      0.00725       -0.00010347223 -0.0019726743   4.1536393     -611386.34      3192.8588      86.146881      55.405423      853.07994      4071754.3      71.346467      649770.33    
     14600   300.00967      0.0073         0.0032851695   0.0018068932   4.2611486     -611397.52      3201.8899      86.221029      55.336477      853.12229      4070389.8      71.16896       648185.91    
     14700   299.56136      0.00735        0.0029501046  -0.0023123327   4.2975876     -611384.22      3197.1053      86.282152      55.304641      853.16464      4071134        71.163603      648169.29    
     14800   299.86781      0.0074        -0.0022518648   0.0025374292   4.3462827     -611373.02      3200.3759      86.319026      55.225701      853.20699      4067262.2      71.240789      648904.52    
     14900   300.38134      0.00745       -0.0025725177  -0.00135228     4.3822476     -611367.48      3205.8566      86.381129      55.175051      853.24934      4066657.3      71.307235      649541.99    
     15000   301.54629      0.0075        -0.0016807861  -0.00037246941  4.4066494     -611383.93      3218.2896      86.433218      55.068315      853.29169      4061439.4      71.265071      649190.15    
     15100   299.58615      0.00755       -0.0022163771   0.0019507815   4.4471803     -611383.55      3197.3699      86.483886      54.996794      853.33403      4058743.8      71.125105      647947.28    
     15200   300.51206      0.0076         0.0014585913  -0.0055515446   4.4516964     -611392.99      3207.2517      86.556949      54.873866      853.37638      4053294.1      71.254775      649160.78    
     15300   300.70469      0.00765        0.0029381545   0.0053576091   4.4937667     -611396.21      3209.3076      86.588402      54.776688      853.41873      4047787.2      71.280489      649427.27    
     15400   298.36257      0.0077         0.001713028   -0.00066535261  4.5404116     -611394.06      3184.311       86.620122      54.637062      853.46108      4039148.8      71.299305      649630.94    
     15500   298.98438      0.00775        0.00016524394  0.0012140529   4.6288273     -611403.09      3190.9474      86.638563      54.492962      853.50343      4029553.5      71.150451      648306.85    
     15600   300.36709      0.0078        -0.0010919838  -0.0032591559   4.698246      -611406.96      3205.7045      86.663723      54.359573      853.54578      4021056.7      71.104588      647921.11    
     15700   300.30274      0.00785       -0.0049924783   9.0226427e-05  4.7401506     -611396.43      3205.0177      86.69837       54.193802      853.58813      4010596        71.075932      647692.12    
     15800   300.83173      0.0079         0.0019807376   0.0022784908   4.8165107     -611399.99      3210.6634      86.748585      54.03862       853.63048      4001626.6      71.042722      647421.61    
     15900   301.14666      0.00795        0.0010850291   0.0024245155   4.8822667     -611412.41      3214.0246      86.774555      53.87667       853.67283      3991026.4      70.884878      646015.2     
     16000   298.93513      0.008          0.0022436483  -0.0018090634   4.9286289     -611405.8       3190.4218      86.787935      53.715261      853.71518      3979880.6      70.802597      645297.34    
     16100   299.38108      0.00805        0.0018337322   0.00012639107  4.9570532     -611419.15      3195.1813      86.829187      53.523991      853.75753      3967790.8      70.75231       644871.01    
     16200   299.90048      0.0081        -0.0036659323  -0.0033627807   5.0220835     -611428.04      3200.7245      86.832158      53.347354      853.79987      3955028        70.710051      644517.81    
     16300   301.02437      0.00815       -0.0017978383   0.003482548    5.086821      -611427.4       3212.7194      86.890011      53.151444      853.84222      3943324.8      70.562042      643200.62    
     16400   302.22009      0.0082         0.00096657867 -3.2782997e-05  5.1234021     -611441.04      3225.4809      86.908947      52.960643      853.88457      3930220.4      70.514122      642795.69    
     16500   300.69024      0.00825        0.003735126    0.0012099347   5.1661857     -611454.46      3209.1533      86.916457      52.766446      853.92692      3916341.6      70.423393      642000.46    
     16600   300.43948      0.0083        -0.00049243055 -0.0011602673   5.2078867     -611468.31      3206.4771      86.914298      52.555102      853.96927      3900752.1      70.245787      640413.11    
     16700   300.58847      0.00835       -0.0023113868   0.0025214278   5.2535735     -611483.74      3208.0673      86.915172      52.336827      854.01162      3884783        70.240116      640393.17    
     16800   300.82312      0.0084        -0.00013060854 -0.0004762676   5.2674063     -611502.95      3210.5715      86.91309       52.13544       854.05397      3869933.9      70.081521      638978.91    
     16900   299.78774      0.00845        0.0012198249   0.004762051    5.3054696     -611506.7       3199.5214      86.891795      51.909657      854.09632      3852421.3      70.047599      638701.29    
     17000   300.09124      0.0085         0.00062321898  0.00058512184  5.3933214     -611515.23      3202.7605      86.853868      51.702         854.13867      3835525.6      69.899271      637380.42    
     17100   301.03167      0.00855       -0.00041990325  0.00030986361  5.4644071     -611532.38      3212.7974      86.819394      51.47246       854.18102      3817170.8      69.728338      635853.29    
     17200   300.25226      0.0086         0.00024837518 -0.00037567047  5.4919653     -611549.71      3204.479       86.775493      51.248828      854.22337      3798852.9      69.608987      634796.39    
     17300   301.24348      0.00865        0.00029794425 -0.004685683    5.5162786     -611566.69      3215.0579      86.742745      50.995016      854.26571      3778799.7      69.497676      633812.72    
     17400   299.36259      0.0087        -0.0018145994  -0.0035216882   5.5806771     -611555.99      3194.9839      86.67453       50.765262      854.30806      3759002.6      69.296836      632012.41    
     17500   301.01109      0.00875       -0.00043771919  0.00064424887  5.6381638     -611586.06      3212.5777      86.625616      50.498912      854.35041      3737355.3      69.167046      630859.95    
     17600   299.26532      0.0088         0.0020267988   0.0057219286   5.696389      -611581.31      3193.9458      86.556282      50.262323      854.39276      3717052.6      69.002571      629391       
     17700   299.79053      0.00885        0.0006228813   0.00088772761  5.7732124     -611583.42      3199.5511      86.483771      50.00171       854.43511      3694864.9      68.899625      628483.15    
     17800   299.5795       0.0089         5.2990249e-05  0.0038208192   5.8600878     -611569.61      3197.2989      86.426111      49.736423      854.47746      3672993.3      68.690115      626603.11    
     17900   300.04172      0.00895        0.00045358841  0.0020790216   5.9592186     -611566.45      3202.232       86.345205      49.471706      854.51981      3650204.9      68.517784      625062.06    
     18000   300.48296      0.009          0.00041749835  0.001909243    6.0475407     -611566.05      3206.9412      86.283109      49.207732      854.56216      3628296.7      68.41905       624192.28    
     18100   299.70627      0.00905        0.00049234037  0.0026867487   6.1139746     -611549.13      3198.6518      86.208855      48.952706      854.60451      3606565        68.211666      622331.14    
     18200   302.60531      0.0091        -0.00026226933  0.00040578429  6.1690137     -611565         3229.5922      86.142913      48.703025      854.64686      3585602.9      68.014298      620561.2     
     18300   300.79937      0.00915        5.9672897e-06  0.0014135387   6.2295721     -611534.45      3210.3181      86.09802       48.45177       854.68921      3565422.7      67.845169      619048.74    
     18400   299.84411      0.0092         0.00055345819  0.0058522719   6.2471586     -611531.43      3200.1229      86.051376      48.221412      854.73155      3546724.7      67.734937      618073.56    
     18500   298.35497      0.00925        0.0003728918   0.0013753095   6.3104571     -611529.48      3184.2299      86.00433       48.010522      854.7739       3529457.8      67.593644      616814.84    
     18600   298.97741      0.0093        -0.00028843938 -0.00025018796  6.3908273     -611527.18      3190.873       85.964898      47.800306      854.81625      3512566.8      67.508744      616070.62    
     18700   298.97087      0.00935        0.00033699405 -0.00048141874  6.404095      -611505.13      3190.8032      85.927849      47.631217      854.8586       3498806.4      67.414201      615238.32    
     18800   299.3803       0.0094        -0.00033928157 -0.0052557932   6.4863876     -611495.47      3195.1729      85.909007      47.478672      854.90095      3487008.9      67.327297      614475.66    
     18900   299.34006      0.00945       -0.0006757487   0.0038300621   6.5600547     -611476.36      3194.7434      85.908373      47.341437      854.9433       3477076.5      67.385905      615041.02    
     19000   300.43935      0.0095         0.0014937445  -0.002522497    6.6683755     -611471.43      3206.4757      85.89736       47.241343      854.98565      3469451.9      67.205099      613421.16    
     19100   300.45818      0.00955       -0.0022003763  -0.0036233373   6.7436459     -611462.87      3206.6767      85.902401      47.164161      855.028        3464158.5      67.135289      612814.31    
     19200   298.44561      0.0096         0.0013652242   0.0059758606   6.8059244     -611439.48      3185.1973      85.926919      47.098824      855.07035      3460518.3      67.112801      612639.39    
     19300   299.87833      0.00965       -0.00070041082 -0.0036751562   6.8695109     -611429.5       3200.4882      85.967376      47.087002      855.1127       3461450.1      67.197429      613442.3     
     19400   301.81208      0.0097        -0.0012023162  -0.00095707625  6.8803962     -611439.99      3221.1263      86.038401      47.075508      855.15504      3463635.7      67.470783      615968.24    
     19500   299.97938      0.00975        0.00090320734  0.0047955916   6.9802194     -611434.62      3201.5667      86.108174      47.104255      855.19739      3468733.1      67.210041      613618.2     
     19600   300.40673      0.0098        -0.00023372739 -0.0071896427   7.0256449     -611447.93      3206.1276      86.17978       47.142589      855.23974      3474615        67.222319      613760.69    
     19700   299.56762      0.00985        0.00014517663  0.00766783     7.0545275     -611451.55      3197.1721      86.257116      47.1898        855.28209      3481388.2      67.280365      614321.09    
     19800   300.63961      0.0099        -0.00018798295 -0.0039488011   7.0659795     -611471.57      3208.613       86.345213      47.28307       855.32444      3492004.7      67.365803      615131.66    
     19900   300.93668      0.00995       -0.00013985889 -0.0015241845   7.0850722     -611481.6       3211.7836      86.44953       47.350826      855.36679      3501406.9      67.477992      616186.59    
     20000   299.59599      0.01           0.00033099586  0.0041800717   7.1186998     -611481.15      3197.4749      86.561794      47.441467      855.40914      3512839        67.57366       617090.75    
     20100   299.06527      0.01005        0.00074249772 -0.0064330647   7.1363688     -611481.06      3191.8107      86.670794      47.519207      855.45149      3523200.4      67.600953      617370.55    
     20200   301.19841      0.0101         0.0003054481   0.0075246838   7.1556996     -611494.76      3214.5769      86.786326      47.631721      855.49384      3536425.1      67.727547      618557.3     
     20300   300.02836      0.01015       -0.0025073989  -0.0062988501   7.1408791     -611489.29      3202.0894      86.896415      47.736135      855.53619      3548848.8      67.91899       620336.46    
     20400   299.67213      0.0102         7.2327848e-05 -0.00071141561  7.2089104     -611508.93      3198.2875      87.000989      47.847401      855.57854      3561577.6      67.939443      620553.99    
     20500   299.8819       0.01025        0.00053273756 -0.00073726589  7.2647222     -611506.76      3200.5263      87.1358        47.975829      855.62088      3576848.1      68.144118      622454.29    
     20600   299.74158      0.0103         0.0016838443   0.0080545413   7.3064649     -611495.19      3199.0287      87.264851      48.081609      855.66323      3590221.3      68.175199      622769.01    
     20700   300.55999      0.01035       -0.00019506344 -0.0061748392   7.3349063     -611499.84      3207.7633      87.371418      48.215789      855.70558      3604815.4      68.317869      624103.17    
     20800   300.41198      0.0104         9.2257281e-05  0.0029232946   7.3418113     -611488.98      3206.1836      87.492163      48.336954      855.74793      3619047.6      68.479304      625608.88    
     20900   300.61807      0.01045        0.00016605611 -0.00054838557  7.3365095     -611500.21      3208.3831      87.591293      48.48149       855.79028      3634161.6      68.52828       626087.29    
     21000   298.97172      0.0105         0.00020690703  0.002133792    7.3381552     -611502.98      3190.8122      87.693023      48.583684      855.83263      3646232.2      68.787425      628485.99    
     21100   299.53994      0.01055        0.0005014676  -5.1774853e-05  7.393733      -611511.18      3196.8766      87.790343      48.715458      855.87498      3660360.5      68.80157       628646.35    
     21200   299.45995      0.0106         0.0016631735   0.0013174318   7.4486187     -611503.74      3196.0229      87.890807      48.802238      855.91733      3671258.9      68.866218      629268.17    
     21300   300.47219      0.01065       -0.0022177539  -0.0021129941   7.5074509     -611500.64      3206.8262      87.952971      48.920999      855.95968      3682978.1      69.034714      630839.02    
     21400   301.4941       0.0107         0.00050163893  0.00046945547  7.5548843     -611498.32      3217.7327      88.010615      49.001922      856.00203      3691670.8      69.166181      632071.64    
     21500   300.52668      0.01075        0.001289286   -0.00086063477  7.5869019     -611493.34      3207.4078      88.068663      49.090907      856.04438      3700997.1      69.358315      633858.8     
     21600   298.55967      0.0108        -0.0015994048   0.0015692241   7.6793637     -611488.86      3186.4146      88.132809      49.146533      856.08672      3708072.9      69.196403      632410.39    
     21700   299.43831      0.01085        0.00086069256 -0.0011905554   7.7074413     -611484         3195.7921      88.208186      49.22737       856.12907      3717532.5      69.292476      633319.76    
     21800   298.95135      0.0109         0.0021996723   0.0030757276   7.7166488     -611462.67      3190.5949      88.258317      49.272877      856.17142      3723268        69.392179      634262.4     
     21900   299.49601      0.01095       -0.0030489431  -0.0018705929   7.7398341     -611457.56      3196.4079      88.307521      49.323733      856.21377      3729373.2      69.536436      635612.39    
     22000   299.98054      0.011          0.00042626954  0.0026167514   7.7578186     -611452.72      3201.579       88.376057      49.35482       856.25612      3734804.6      69.685873      637009.86    
     22100   300.62436      0.01105        0.0024080119  -0.0014242374   7.8154525     -611441.31      3208.4503      88.419492      49.38083       856.29847      3738794.3      69.558354      635875.63    
     22200   302.64956      0.0111        -0.0026895341   9.0509072e-05  7.7937558     -611446.88      3230.0644      88.465681      49.383746      856.34082      3741153.3      69.880375      638851.02    
     22300   301.00792      0.01115        0.00040042654  0.00057453562  7.8636338     -611436.16      3212.5439      88.504138      49.393798      856.38317      3743726.5      69.62733       636569.15    
     22400   298.83752      0.0112         0.0018550339   0.00096695766  7.9642079     -611421.94      3189.38        88.533906      49.382148      856.42552      3744287.6      69.524467      635660.15    
     22500   299.06264      0.01125       -0.0011401381  -0.0046981969   7.9855559     -611415.64      3191.7826      88.540915      49.38041       856.46787      3744637.4      69.707219      637362.56    
     22600   299.87064      0.0113        -0.0014038652   0.0059075407   8.0385405     -611396.78      3200.4062      88.569374      49.369315      856.51022      3745184.6      69.808697      638321.98    
     22700   299.79536      0.01135        0.0025325502  -0.0045043642   8.124617      -611388.74      3199.6027      88.588713      49.348983      856.55256      3744644.7      69.542302      635917.54    
     22800   300.49094      0.0114        -0.00037935865  0.0043524633   8.1553056     -611385.94      3207.0263      88.620716      49.326342      856.59491      3744463.9      69.65566       636985.61    
     22900   300.37553      0.01145       -0.0022149379  -0.0042133531   8.1633509     -611375.49      3205.7946      88.649346      49.298489      856.63726      3743743.7      69.650507      636969.99    
     23000   299.18595      0.0115         0.0025889587   0.0037814184   8.2191061     -611364.4       3193.0987      88.678982      49.286503      856.67961      3744269.8      69.685324      637319.89    
     23100   298.81931      0.01155        0.00064746298 -0.00020266848  8.3089556     -611376.89      3189.1857      88.70773       49.231051      856.72196      3741454.5      69.581832      636404.85    
     23200   299.94329      0.0116        -0.002819703   -0.0023996543   8.3691684     -611388.74      3201.1814      88.728104      49.210108      856.76431      3740906.8      69.696314      637483.43    
     23300   299.55696      0.01165        0.00012459655  0.0034576678   8.4191037     -611370.45      3197.0583      88.787035      49.165622      856.80666      3740192.2      69.816367      638613.08    
     23400   300.65571      0.0117         0.0020700452  -0.0043108601   8.5213291     -611358.07      3208.7849      88.81336       49.105369      856.84901      3736900.9      69.500259      635753.05    
     23500   301.43815      0.01175       -0.0019106741   0.0036870332   8.5276321     -611367.58      3217.1356      88.841573      49.069794      856.89136      3735564.4      69.656817      637216.64    
     23600   300.25408      0.0118        -0.00047200256 -0.00053886101  8.5851852     -611367.96      3204.4984      88.879801      48.977334      856.93371      3730314.4      69.788726      638454.9     
     23700   298.67737      0.01185        0.0021979313  -0.0021697142   8.6945917     -611357.01      3187.6708      88.917928      48.918465      856.97606      3727613.2      69.449955      635387.09    
     23800   300.04833      0.0119        -0.0016912232   0.0031881276   8.7261976     -611367.32      3202.3025      88.940891      48.836781      857.0184       3722533.9      69.487035      635757.74    
     23900   300.87639      0.01195       -0.00031913018 -0.0024450711   8.7546694     -611362.55      3211.1401      89.013543      48.715178      857.06075      3716481.6      69.598127      636805.62    
     24000   301.72669      0.012          0.0027562309  -0.0021284928   8.8225533     -611357.13      3220.215       89.057414      48.647623      857.1031       3713340.5      69.40932       635109.47    
     24100   301.78245      0.01205       -0.0019451414   0.0052929224   8.8450601     -611371.18      3220.8101      89.102492      48.527239      857.14545      3706209.4      69.642449      637274.13    
     24200   301.0689       0.0121        -0.0014447688  -0.002877357    8.9662662     -611382.87      3213.1947      89.159041      48.423748      857.1878       3700835.4      69.375794      634865.43    
     24300   300.45912      0.01215        0.0014206726   0.004560729    9.0201592     -611388.61      3206.6867      89.20898       48.31323       857.23015      3694639.7      69.384855      634979.72    
     24400   299.98045      0.0122        -0.00053091629 -0.0022407424   9.0793107     -611391.92      3201.5781      89.268504      48.173392      857.2725       3686586.1      69.288001      634124.68    
     24500   299.94966      0.01225       -0.00031428177 -0.0041220088   9.1142048     -611397.42      3201.2495      89.331098      48.047866      857.31485      3679739.9      69.272549      634014.58    
     24600   298.85903      0.0123         0.0028501273   0.0067846837   9.1850953     -611393.77      3189.6096      89.381801      47.896796      857.3572       3670433.5      69.264418      633971.47    
     24700   298.85158      0.01235       -0.0031656824  -0.0037319406   9.223885      -611397.05      3189.5301      89.424892      47.739152      857.39955      3660297.4      69.288106      634219.62    
     24800   300.50663      0.0124         0.0010925097   0.0043110059   9.2635238     -611404.22      3207.1938      89.479082      47.588505      857.4419       3651138.3      69.243299      633840.79    
     24900   302.09019      0.01245        0.00018382219 -0.0029949209   9.2918732     -611418.19      3224.0945      89.508707      47.437658      857.48424      3640949.7      69.016874      631799.34    
     25000   300.59698      0.0125        -0.0019357504  -0.0009933163   9.3300952     -611426.95      3208.158       89.53501       47.29346       857.52659      3631128.1      69.040786      632049.45    
     25100   300.31561      0.01255        0.0070381071   0.0008489861   9.3795424     -611438.43      3205.1551      89.571684      47.138376      857.56894      3620882.2      69.091588      632545.77    
     25200   299.82993      0.0126        -0.0062397631  -0.0026686308   9.435823      -611447.3       3199.9716      89.548313      46.989075      857.61129      3608650.3      69.087082      632535.75    
     25300   299.30525      0.01265        0.0018482435   0.0050926605   9.507675      -611450.25      3194.3719      89.575683      46.834194      857.65364      3598032.8      68.935364      631177.84    
     25400   299.77555      0.0127        -3.6957256e-05 -0.0014560632   9.5672907     -611457.65      3199.3913      89.549934      46.67078       857.69599      3584624.9      68.708026      629127.38    
     25500   298.93291      0.01275       -0.00081400483  0.0013601827   9.6415915     -611460.61      3190.3981      89.531626      46.531086      857.73834      3573341.2      68.604412      628209.66    
     25600   299.14151      0.0128         0.0030005994  -0.0031373976   9.6987781     -611468.82      3192.6244      89.488709      46.372908      857.78069      3559662.6      68.527009      627531.86    
     25700   298.83159      0.01285       -0.006831802   -0.0016803028   9.779821      -611448.72      3189.3167      89.450901      46.216596      857.82304      3546340.1      68.461039      626958.69    
     25800   300.3701       0.0129         0.0067133107   0.0040109937   9.8598909     -611445.04      3205.7366      89.410962      46.060027      857.86539      3532922.4      68.326444      625756.98    
     25900   299.72302      0.01295       -0.0029688618   0.00053960198  9.9411607     -611441.69      3198.8306      89.345355      45.878431      857.90774      3516585        68.228774      624893.33    
     26000   300.3193       0.013          0.0029275002   0.001527737    10.004088     -611458.1       3205.1945      89.279364      45.730342      857.95008      3502817.9      68.127244      623994.24    
     26100   298.47156      0.01305       -0.0017007861   1.2295428e-06  10.074608     -611444.17      3185.4743      89.184547      45.551829      857.99243      3485610.8      68.096419      623742.69    
     26200   299.64691      0.0131         0.00081041447  0.0016720972   10.181282     -611427.16      3198.0183      89.133665      45.384247      858.03478      3470977.4      67.961352      622536.25    
     26300   300.39595      0.01315        0.00064892815  0.0059543337   10.268387     -611419.26      3206.0126      89.064053      45.207643      858.07713      3454941.1      67.772131      620833.6     
     26400   299.58555      0.0132         8.5389783e-05 -0.0010454281   10.342991     -611408.69      3197.3634      89.004072      45.029614      858.11948      3439187.5      67.628002      619543.86    
     26500   299.92952      0.01325        0.00089213516  0.00029739609  10.422989     -611419.07      3201.0345      88.950945      44.858717      858.16183      3424259        67.486038      618273.83    
     26600   299.48969      0.0133        -0.0021952485  -0.0024470269   10.47882      -611424.67      3196.3403      88.886161      44.712932      858.20418      3410813.1      67.602461      619371.01    
     26700   298.68326      0.01335        0.0020189145  -0.0024975359   10.574257     -611414.05      3187.7336      88.858612      44.546297      858.24653      3397216.2      67.511984      618572.59    
     26800   299.53294      0.0134        -0.0021633841  -0.0026861259   10.666129     -611394         3196.8019      88.818848      44.420928      858.28888      3386306.4      67.278342      616462.28    
     26900   300.564        0.01345        0.0004009794   0.0040421158   10.733208     -611392.59      3207.806       88.817095      44.288784      858.33123      3376332.7      67.212393      615888.39    
     27000   299.43813      0.0135         0.00056776829 -0.0041502215   10.792328     -611376.28      3195.7901      88.80452       44.187075      858.37358      3368268.2      67.209719      615894.27    
     27100   301.08334      0.01355       -0.00087898859  0.0024940412   10.793124     -611397.89      3213.3488      88.816096      44.116482      858.41592      3363491.4      67.270321      616480.03    
     27200   299.63411      0.0136         0.00092997401  0.0005173151   10.901488     -611398.33      3197.8817      88.824722      44.076545      858.45827      3360938.7      67.103352      614980.22    
     27300   299.95436      0.01365       -0.0031746676  -0.0045455883   10.949982     -611396.37      3201.2996      88.868762      44.046574      858.50062      3360484.3      67.125396      615212.6     
     27400   300.41277      0.0137         0.0058658331   0.0029264293   10.97922      -611384.35      3206.1921      88.923505      44.071378      858.54297      3364613.9      67.271043      616577.89    
     27500   301.34606      0.01375       -0.0056020622  -0.00016982349  11.064876     -611386.2       3216.1527      88.979575      44.080233      858.58532      3367578.1      67.056847      614644.97    
     27600   300.85086      0.0138         0.0027218096  -0.0034354357   11.093797     -611385.76      3210.8677      89.057341      44.124951      858.62767      3374106.9      67.269748      616626.84    
     27700   300.842        0.01385       -0.001968165    0.0012403291   11.088902     -611400.05      3210.7731      89.107972      44.202499      858.67002      3382125.2      67.501773      618784.22    
     27800   299.98672      0.0139         0.0019395734   0.0039263031   11.196921     -611401.14      3201.645       89.192478      44.254003      858.71237      3389444.4      67.220473      616235.95    
     27900   299.08627      0.01395       -0.0015059086  -0.0071985893   11.197407     -611396.12      3192.0348      89.256099      44.321082      858.75472      3397170.9      67.395991      617875.46    
     28000   300.17999      0.014          0.0011151451   0.0046488586   11.202415     -611391.1       3203.7076      89.345871      44.40354       858.79707      3407082.4      67.665962      620381.11    
     28100   299.66115      0.01405       -0.00091136977  0.00047783012  11.261417     -611366.55      3198.1703      89.42729       44.440813      858.83942      3413218.1      67.471224      618626.19    
     28200   300.59704      0.0141         0.00030486825 -0.0037712233   11.291431     -611372.22      3208.1587      89.499463      44.502753      858.88176      3420902.5      67.522466      619126.55    
     28300   299.84523      0.01415        0.0031118975   0.0052185201   11.282246     -611374         3200.1349      89.573061      44.567896      858.92411      3428896.2      67.709916      620875.93    
     28400   300.57876      0.0142        -0.0043777194   0.0016172867   11.308532     -611394.55      3207.9636      89.643201      44.587444      858.96646      3433255.6      67.770072      621458.17    
     28500   300.82079      0.01425        0.0032828698  -0.0040498412   11.363628     -611398.82      3210.5467      89.719301      44.626161      859.00881      3439323.6      67.810591      621860.4     
     28600   300.66801      0.0143        -0.0022009499  -0.00096824821  11.367725     -611401.87      3208.9161      89.77015       44.651857      859.05116      3443424        67.902678      622735.59    
     28700   299.82269      0.01435        0.0018824692   0.0068271875   11.446148     -611406.65      3199.8944      89.836085      44.655109      859.09351      3446374        67.760883      621465.82    
     28800   299.18537      0.0144        -0.0024957649  -0.006147471    11.466562     -611411.49      3193.0924      89.867539      44.641174      859.13586      3446674.7      67.908111      622846.81    
     28900   299.53953      0.01445        0.0028230706   0.00049234385  11.506715     -611415.33      3196.8723      89.924747      44.642756      859.17821      3449161.1      68.212064      625665.49    
     29000   300.34227      0.0145        -0.0018463912   0.0027203585   11.599609     -611395.89      3205.4397      89.946351      44.614765      859.22056      3447996.5      68.005151      623798.35    
     29100   301.18742      0.01455        0.00060857633 -0.00062128866  11.705942     -611394.33      3214.4596      89.995901      44.555105      859.26291      3445452.5      68.074236      624462.84    
     29200   300.6251       0.0146         0.0016894428  -0.0029351815   11.725386     -611396.77      3208.4582      89.998569      44.501876      859.30526      3441607.9      68.254845      626150.47    
     29300   299.09512      0.01465       -0.0037372546   0.001530588    11.881055     -611395.41      3192.1292      90.040181      44.448703      859.3476       3439254.6      67.857613      622537.06    
     29400   299.46886      0.0147         0.0042081365   0.0016310508   11.899408     -611396.91      3196.1181      90.036049      44.377182      859.38995      3433732.2      68.196095      625673.18    
     29500   300.66909      0.01475       -0.0031091067   0.0007954247   12.016597     -611396.76      3208.9277      90.05538       44.290734      859.4323       3427947.9      67.948637      623433.56    
     29600   300.69678      0.0148         0.0035042059  -0.0030888013   12.130499     -611383.42      3209.2232      90.03944       44.217721      859.47465      3421859.8      67.741443      621563.18    
     29700   302.26984      0.01485       -0.0052789888   0.0013402994   12.156807     -611374.47      3226.0118      90.063716      44.127686      859.517        3415981.3      67.847526      622567.21    
     29800   300.25584      0.0149         0.0062338526   0.0023192915   12.260869     -611351.01      3204.5172      90.0474        44.039066      859.55935      3408671.5      67.870595      622809.58    
     29900   298.90784      0.01495       -0.0042463561  -0.0017054989   12.383657     -611350.56      3190.1305      90.080863      43.952933      859.6017       3403436.6      67.570438      620085.76    
     30000   299.36392      0.015          0.0024610306  -0.0013294347   12.433074     -611366.63      3194.9981      90.061493      43.916194      859.64405      3400028        67.565856      620074.26    
     30100   299.49931      0.01505       -0.0029565228   0.0030358053   12.45421      -611362.35      3196.443       90.079754      43.875969      859.6864       3397769.9      67.649564      620873.06    
     30200   299.40488      0.0151         0.0034814513   0.00092542186  12.456415     -611354.66      3195.4352      90.086847      43.846432      859.72875      3395917.2      67.721217      621561.29    
     30300   300.41533      0.01515       -0.0027902757  -0.0049968824   12.56055      -611355.42      3206.2194      90.117074      43.834963      859.7711       3396335.4      67.491411      619482.6     
     30400   300.93597      0.0152         0.00061030874  0.00026734758  12.534133     -611352.47      3211.776       90.144335      43.861648      859.81344      3399598.4      67.763415      622009.88    
     30500   299.57698      0.01525       -0.00026625813 -0.00053455856  12.618637     -611343.9       3197.272       90.160278      43.905589      859.85579      3403773.6      67.635549      620866.75    
     30600   298.98258      0.0153         0.00073901766  0.0032250802   12.691795     -611352.02      3190.9282      90.199432      43.958456      859.89814      3409520        67.646097      620994.16    
     30700   299.88372      0.01535       -0.0010301044  -0.00062366484  12.718683     -611360.03      3200.5457      90.227262      44.010521      859.94049      3414779.7      67.720739      621710       
     30800   300.11204      0.0154         0.0015237731  -0.00040831108  12.724456     -611357.22      3202.9824      90.301888      44.080845      859.98284      3423233.5      67.888191      623277.98    
     30900   298.64171      0.01545        6.8972097e-05 -0.00020662406  12.790554     -611351.58      3187.2902      90.31687       44.15355       860.02519      3429617.4      67.918667      623588.49    
     31000   299.56541      0.0155        -0.00074292483  0.0012800513   12.911211     -611366.46      3197.1486      90.405138      44.229716      860.06754      3439060.5      67.838406      622882.25    
     31100   300.05939      0.01555        0.0013134263  -0.00092643977  12.894106     -611361.02      3202.4206      90.4248        44.295649      860.10989      3445105.8      68.27124       626887.34    
     31200   300.24637      0.0156        -0.0026305353   0.0012902918   12.96763      -611344.25      3204.4161      90.46269       44.357574      860.15224      3451537.6      68.003552      624460.09    
     31300   300.09096      0.01565        0.0020186126  -0.0011808695   12.994738     -611336.94      3202.7575      90.485612      44.423453      860.19459      3457709.8      68.031606      624748.46    
     31400   298.70586      0.0157        -0.0019103169  -0.002155988    12.965        -611341.87      3187.9748      90.534872      44.468281      860.23693      3463253.8      68.365802      627848.36    
     31500   298.77401      0.01575        0.0023209453  -0.001299125    13.070638     -611350.77      3188.7021      90.561074      44.522705      860.27928      3468666.7      68.083805      625289.38    
     31600   298.9816       0.0158        -0.0018598849   0.00084473806  13.099967     -611337.05      3190.9177      90.583482      44.556141      860.32163      3472301.4      68.153585      625961.06    
     31700   300.50836      0.01585        0.0006792168   0.0011267648   13.096348     -611334.72      3207.2123      90.601602      44.597855      860.36398      3476418.6      68.443558      628655.28    
     31800   299.77009      0.0159        -0.0010380021   0.003865895    13.190957     -611321.71      3199.3329      90.618015      44.615647      860.40633      3478606.8      68.161127      626091.97    
     31900   299.57299      0.01595        0.00024345791  0.001832861    13.272176     -611321.3       3197.2294      90.620361      44.618448      860.44868      3479086.5      68.166039      626167.9     
     32000   299.00927      0.016          0.00090217431 -0.0020840288   13.288348     -611326.78      3191.2131      90.619566      44.600042      860.49103      3477791.9      68.325725      627665.66    
     32100   298.58922      0.01605       -0.00036708869 -0.0028731789   13.308156     -611338.73      3186.73        90.619295      44.575802      860.53338      3476062.5      68.272272      627205.49    
     32200   298.43277      0.0161         0.0017559475  -0.001120557    13.377531     -611325.04      3185.0603      90.597892      44.547759      860.57573      3473226        68.240763      626946.87    
     32300   299.50521      0.01615       -0.0033540661  -0.0016674141   13.429912     -611313.68      3196.5061      90.551579      44.53126       860.61808      3470335.6      68.338912      627879.49    
     32400   300.24577      0.0162         0.0026979166   0.00064202083  13.518854     -611311.67      3204.4097      90.546912      44.481122      860.66043      3466420.2      68.18302       626478.03    
     32500   299.93501      0.01625       -0.00035286093  0.0008706821   13.597642     -611311.71      3201.0931      90.483321      44.436642      860.70277      3460692.2      68.139874      626112.4     
     32600   299.33463      0.0163        -0.0059660398   0.00021595304  13.645604     -611315.73      3194.6855      90.482859      44.365268      860.74512      3455286        68.277844      627411.02    
     32700   298.77765      0.01635        0.0085442107   0.0021641323   13.777669     -611317.5       3188.7411      90.427134      44.285768      860.78747      3447139.7      67.978149      624687.84    
     32800   300.51345      0.0164        -0.0055656723   0.0010765986   13.842841     -611317.81      3207.2666      90.393699      44.210432      860.82982      3440172.5      68.051419      625391.92    
     32900   300.4572       0.01645        0.0025256553   0.00045964375  13.87909      -611299.21      3206.6662      90.372749      44.102409      860.87217      3431140.3      68.103934      625905.32    
     33000   299.65269      0.0165        -8.8263483e-05 -0.00036314472  14.029843     -611290.11      3198.08        90.313855      44.008386      860.91452      3421762.4      67.751052      622692.81    
     33100   300.24952      0.01655       -0.0053534789  -0.0015450956   14.085885     -611301.65      3204.4498      90.316455      43.916474      860.95687      3414882.4      67.862272      623745.7     
     33200   298.46631      0.0166         0.0068928078   0.0016867307   14.123693     -611301.21      3185.4182      90.28773       43.829084      860.99922      3407170.6      67.886929      624003.03    
     33300   298.57215      0.01665       -0.0031952225  -0.0019913895   14.223834     -611292.92      3186.5479      90.272487      43.743439      861.04157      3400105.9      67.631967      621690.05    
     33400   299.07448      0.0167         0.001522802    0.00081457174  14.258928     -611277.16      3191.909       90.268439      43.696084      861.08392      3396439.8      67.76751       622966.63    
     33500   297.78355      0.01675        0.0018148734  -0.0018506391   14.339349     -611250.23      3178.1314      90.254124      43.637454      861.12627      3391511.5      67.693319      622315.22    
     33600   300.84733      0.0168        -0.0065764362   0.00010887305  14.445507     -611264.83      3210.8299      90.270268      43.616001      861.16861      3390617.3      67.534277      620883.65    
     33700   300.1831       0.01685        0.0076301837  -0.00062641983  14.396183     -611247.31      3203.7409      90.313794      43.597844      861.21096      3391006.7      67.968324      624904.85    
     33800   299.07886      0.0169        -0.0048778182   0.0001228545   14.551433     -611239.49      3191.9558      90.324581      43.595873      861.25331      3391425.2      67.512179      620741.55    
     33900   298.31155      0.01695        0.00018446871  0.00089367023  14.551256     -611247.45      3183.7666      90.372261      43.61754       861.29566      3395068.8      67.858666      623958       
[...]
    274900   326.05394      0.13745       -0.0029202219   0.0012831395   56.285593     -601012.12      3479.8506      100.91191      32.944976      963.35695      3202719.1      67.085617      689946.76    
    275000   325.05143      0.1375         0.0016248674  -0.00066636209  55.453202     -601389.2       3469.1512      100.90091      32.920017      963.3993       3200084.7      67.097056      690094.74    
    275100   324.14095      0.13755        0.003284965   -0.00064154834  54.688956     -601763.17      3459.434       100.92125      32.895184      963.44165      3198456        67.046528      689605.38    
    275200   323.63808      0.1376        -0.0048309281  -0.0035388813   53.858211     -602136.84      3454.0671      100.91899      32.896916      963.484        3198693.3      67.082701      690007.75    
    275300   323.11487      0.13765       -0.00010539154  0.0013833203   53.064397     -602506.85      3448.483       100.89312      32.899005      963.52635      3198217        67.093665      690150.86    
    275400   322.44662      0.1377         0.0044037907   0.0010278719   52.226048     -602872.45      3441.351       100.9003       32.911995      963.5687       3199848        67.125878      690512.57    
    275500   322.0307       0.13775       -0.0018957198   0.00062232047  51.469064     -603237.6       3436.912       100.92138      32.920732      963.61105      3201506.9      67.069779      689965.82    
    275600   322.08802      0.1378        -0.0060111847   0.00085078685  50.709872     -603598.03      3437.5239      100.89893      32.933675      963.6534       3202193.7      67.033089      689618.68    
    275700   321.60718      0.13785        0.0060064537  -0.0020707473   49.873522     -603959.07      3432.392       100.89371      32.951419      963.69575      3203894.2      67.112804      690469.11    
    275800   320.96321      0.1379         0.00088259592 -0.0002113358   49.126588     -604315.37      3425.5191      100.91125      32.973872      963.7381       3206775.5      67.05842       689939.92    
    275900   320.36113      0.13795       -0.002825024   -0.00059554146  48.365853     -604668.84      3419.0933      100.91404      33.004595      963.78044      3209993.2      67.033872      689717.66    
    276000   320.10653      0.138         -0.0020813105   0.0024785734   47.589678     -605023.04      3416.3762      100.88755      33.024157      963.82279      3211193.8      67.054759      689962.88    
    276100   319.73624      0.13805        0.0064344986  -0.0001727875   46.797685     -605373.6       3412.4241      100.9075       33.038626      963.86514      3213377.1      67.089988      690355.7     
    276200   319.25611      0.1381        -0.0026909247  -0.0015063063   46.049945     -605719.98      3407.2999      100.92631      33.052453      963.90749      3215462.3      67.07279       690209.06    
    276300   319.15334      0.13815       -0.0017284751   1.713328e-05   45.281273     -606067.95      3406.2031      100.91896      33.064779      963.94984      3216568.8      67.127372      690801.08    
    276400   318.32647      0.1382         0.0014562696   0.00088454274  44.535435     -606405.56      3397.3782      100.91265      33.068399      963.99219      3216861.1      67.150914      691073.72    
    276500   317.15018      0.13825        0.0038497135   0.0010235027   43.777344     -606733.86      3384.8242      100.93753      33.063849      964.03454      3217352.6      67.139883      690990.54    
    276600   315.35876      0.1383        -0.0055651649  -0.0023613229   42.967426     -607045.29      3365.7049      100.94853      33.050473      964.07689      3216543        67.172074      691352.22    
    276700   313.96479      0.13835       -0.00030917317  0.00029274974  42.182468     -607344.86      3350.8276      100.92498      33.043066      964.11924      3215213        67.120033      690846.94    
    276800   312.29787      0.1384         0.0030178867   0.0019055826   41.355749     -607632.45      3333.0372      100.93186      33.021338      964.16159      3213459        67.084517      690511.72    
    276900   310.8957       0.13845        0.0017705792   0.00093304235  40.492122     -607909.62      3318.0724      100.96199      32.997131      964.20394      3212202.8      67.0839        690535.7     
    277000   309.81275      0.1385        -0.0064423564  -0.0029535478   39.572851     -608178.29      3306.5145      100.96727      32.965499      964.24628      3209432.4      67.136526      691107.77    
    277100   308.82019      0.13855        0.0018112531  -0.00026954424  38.695289     -608437.09      3295.9213      100.94115      32.947776      964.28863      3207017.9      67.086839      690626.62    
    277200   308.1408       0.1386         0.003753236    0.0019010749   37.790681     -608689.62      3288.6703      100.94999      32.93168       964.33098      3205872.7      67.061749      690398.65    
    277300   307.26705      0.13865        0.00027988277  0.0007724227   36.840597     -608931.33      3279.3452      100.97784      32.911577      964.37333      3204940.4      67.060372      690414.79    
    277400   306.64689      0.1387        -0.006027128   -0.0020806194   35.882306     -609167.1       3272.7264      100.98296      32.885782      964.41568      3202731.4      67.025938      690090.58    
    277500   306.31042      0.13875        0.0019613321  -0.00067140112  34.891951     -609399.07      3269.1354      100.96018      32.876584      964.45803      3201254.2      67.043332      690299.97    
    277600   305.83676      0.1388         0.0029128389   0.0011828467   33.891111     -609624.02      3264.0803      100.97358      32.867196      964.50038      3200905.2      67.03874       690283       
    277700   305.19474      0.13885        0.00055816631  0.00098875772  32.871453     -609840.76      3257.2282      100.99624      32.859132      964.54273      3200978.6      67.04026       690328.96    
    277800   304.62597      0.1389        -0.0040981928  -0.0012832281   31.831381     -610050.32      3251.1579      101.01013      32.850756      964.58508      3200743.4      67.067743      690642.28    
    277900   304.13907      0.13895       -0.00091332443 -0.0013612347   30.788281     -610252.13      3245.9615      100.98729      32.854769      964.62743      3200550.8      67.049161      690481.25    
    278000   303.63618      0.139          0.0045664179   0.0022026052   29.71314      -610445.87      3240.5943      100.99809      32.852305      964.66978      3200793.7      67.042893      690447.01    
    278100   303.24522      0.13905        0.001497239   -0.00017462054  28.610966     -610633.59      3236.4217      101.03005      32.852676      964.71212      3201983.2      67.056252      690614.91    
    278200   302.83436      0.1391        -0.0034801567  -0.00076798928  27.513935     -610813.42      3232.0368      101.05136      32.853474      964.75447      3202877.1      67.020485      690276.85    
    278300   302.43614      0.13915       -0.0053858396  -0.0013520958   26.387461     -610985.78      3227.7868      101.03485      32.865439      964.79682      3203660.7      67.042846      690537.46    
    278400   302.09407      0.1392         0.005819733    0.0024945966   25.230434     -611150.69      3224.1359      101.04515      32.870475      964.83917      3204618.7      67.067207      690818.7     
    278500   301.87817      0.13925        0.0025042966  -0.0012072211   24.059967     -611309.79      3221.8318      101.07457      32.870103      964.88152      3205656.2      67.049652      690668.19    
    278600   301.57033      0.1393        -0.0011286707  -0.00032158386  22.869862     -611461.21      3218.5462      101.10032      32.88302       964.92387      3207873.8      67.058989      690794.69    
    278700   301.23164      0.13935       -0.0056633147   0.0013053782   21.638116     -611604.56      3214.9316      101.10834      32.883602      964.96622      3208325.7      67.13471       691605.07    
    278800   300.98918      0.1394         0.0031038934  -0.00018198524  20.436206     -611740.79      3212.3438      101.1123       32.877146      965.00857      3207962.3      67.089216      691166.73    
    278900   300.75721      0.13945        0.0022419358  -0.00072926553  19.189284     -611869.36      3209.8682      101.13946      32.875245      965.05092      3208779.2      67.082867      691131.65    
    279000   300.52517      0.1395         0.00061292836  0.0012713603   17.921143     -611989.68      3207.3916      101.16831      32.873525      965.09327      3209667.7      67.09109       691246.71    
    279100   300.38235      0.13955       -0.0032277384  -0.00071820693  16.642932     -612102.48      3205.8674      101.20177      32.856396      965.13562      3209197        67.086217      691226.83    
    279200   300.20924      0.1396        -0.0018648886  -0.0016777934   15.343162     -612206.91      3204.0199      101.19941      32.848055      965.17796      3208448.3      67.10934       691495.42    
    279300   300.05244      0.13965        0.0040222302   0.0023201182   14.027783     -612303.53      3202.3464      101.22176      32.832816      965.22031      3207808.6      67.116098      691595.39    
    279400   299.92744      0.1397         0.0017011328  -0.00046237297  12.692185     -612392.25      3201.0123      101.26408      32.816125      965.26266      3207659.1      67.103101      691491.81    
    279500   299.91948      0.13975       -0.002304787    0.00086488658  11.342604     -612473.24      3200.9273      101.29736      32.797127      965.30501      3206996.5      67.117595      691671.51    
    279600   299.89439      0.1398        -0.00097091355 -0.00097485106  9.983806      -612548.58      3200.6596      101.3245       32.775655      965.34736      3205896.4      67.12378       691765.6     
    279700   299.60393      0.13985       -3.3246299e-05  0.00093268163  8.6116845     -612611.6       3197.5596      101.34774      32.760791      965.38971      3205317.9      67.15136       692080.19    
    279800   299.51939      0.1399         0.0036730368  -0.00095402637  7.2256068     -612665.71      3196.6574      101.38808      32.733786      965.43206      3204091.2      67.118164      691768.41    
    279900   299.63822      0.13995        0.0003607893  -0.00063229965  5.8222295     -612711.29      3197.9256      101.45132      32.723796      965.47441      3205251.7      67.134823      691970.47    
    280000   299.7614       0.14          -0.0043380385   0.0010238428   4.4263701     -612749.18      3199.2402      101.49013      32.714894      965.51676      3205746.3      67.160054      692260.89    
    280100   299.55213      0.14005       -0.0005096393   3.1671133e-05  3.0241408     -612777.14      3197.0068      101.52961      32.698123      965.55911      3205489.8      67.168756      692380.96    
    280200   299.4279       0.1401         0.0016000517  -0.0010888187   1.6170768     -612796.68      3195.6809      101.5831       32.696505      965.60145      3207160.5      67.19503       692682.17    
    280300   299.55888      0.14015       -7.2714225e-05  0.00045221258  0.20705748    -612807.12      3197.0788      101.64064      32.702022      965.6438       3209659.4      67.238972      693165.55    
    280400   299.70687      0.1402        -0.00046320258  0.0006788499  -1.2072484     -612808.46      3198.6583      101.70594      32.709574      965.68615      3212604.2      67.25459       693356.96    
    280500   299.56584      0.14025       -0.00085305635 -0.00022063022 -2.6287318     -612800         3197.1531      101.77066      32.718002      965.7285       3215617.8      67.273291      693580.17    
    280600   299.36963      0.1403        -0.00013924327 -0.0012440057  -4.0572086     -612781.78      3195.059       101.81906      32.739224      965.77085      3219375        67.298651      693872.06    
    280700   299.45915      0.14035        0.0042730279   0.0019718924  -5.4800585     -612754.12      3196.0145      101.88389      32.764037      965.8132       3224007.7      67.358593      694520.53    
    280800   299.743        0.1404         0.0010220546  -0.00041859395 -6.867659      -612717.96      3199.0438      101.96447      32.788845      965.85555      3229142.1      67.423857      695223.94    
    280900   299.84665      0.14045       -0.0029057252   0.00037297098 -8.1813663     -612674.6       3200.1501      102.02934      32.81308       965.8979       3233726.7      67.46746       695704.05    
    281000   299.74441      0.1405        -0.0013206148  -0.0016704602  -9.396602      -612626.59      3199.0589      102.08178      32.832884      965.94025      3237483.4      67.491179      695979.15    
    281100   299.50551      0.14055       -0.0026895442   0.00041809339 -10.546078     -612572.68      3196.5092      102.12409      32.857937      965.9826       3241438.5      67.548235      696598.05    
    281200   299.52249      0.1406         0.000600789    0.0003309475  -11.654567     -612513.77      3196.6905      102.15885      32.873843      966.02495      3244253.9      67.581382      696970.44    
    281300   299.62277      0.14065        0.0027969002   0.0013882538  -12.750668     -612448.82      3197.7607      102.21237      32.884598      966.06729      3247157.6      67.596818      697160.19    
    281400   299.48293      0.1407         0.0016338326  -0.0010724124  -13.804688     -612376.62      3196.2682      102.27291      32.886916      966.10964      3249452.5      67.640707      697643.43    
    281500   299.36234      0.14075        0.0018006214   0.00035527644 -14.838435     -612298.65      3194.9812      102.31835      32.895918      966.15199      3251928.6      67.689681      698179.14    
    281600   299.33188      0.1408         0.0033542183   0.0010219335  -15.840086     -612214.5       3194.6561      102.37054      32.896167      966.19434      3253754.3      67.659978      697903.37    
    281700   299.40949      0.14085       -0.0039832794  -0.00098998683 -16.75576      -612125.8       3195.4844      102.38955      32.903792      966.23669      3255255.7      67.719715      698550.17    
    281800   299.48161      0.1409        -0.0014841781  -4.2460784e-05 -17.617233     -612034.06      3196.2541      102.40766      32.906036      966.27904      3256196.2      67.699585      698373.12    
    281900   299.48742      0.14095       -0.0012390662  -0.00052754518 -18.340904     -611940.93      3196.3162      102.40448      32.920712      966.32139      3257690        67.740337      698824.14    
    282000   299.90362      0.141         -0.0017449396   0.00040300628 -18.840389     -611851.9       3200.7581      102.38473      32.934226      966.36374      3258541.6      67.739877      698850.02    
    282100   300.0298       0.14105       -0.00039662921 -0.001354583   -18.970972     -611765.9       3202.1048      102.31787      32.969265      966.40609      3260021        67.758134      699069       
    282200   300.26428      0.1411         0.0017528246   0.00019446115 -18.560074     -611688.67      3204.6073      102.21626      33.010378      966.44844      3260987.8      67.757487      699092.97    
    282300   301.35779      0.14115        0.0018297087  -0.0014474772  -17.501227     -611628.68      3216.2779      102.07507      33.06636       966.49079      3262149        67.693416      698462.52    
    282400   300.94489      0.1412         0.00048747637  0.00037408262 -15.7701       -611584.06      3211.8711      101.8942       33.132302      966.53313      3263005.6      67.64113       697953.61    
    282500   297.5608       0.14125        0.0011117746   0.0042407983  -13.724374     -611522.42      3175.7541      101.73487      33.160526      966.57548      3260821.4      67.582811      697382.4     
    282600   297.66753      0.1413         0.0013288931  -0.0022576748  -12.104489     -611441.85      3176.8931      101.67708      33.154564      966.61783      3258526.1      67.619429      697790.83    
    282700   304.93962      0.14135       -0.0037739171   0.0024468631  -11.51048      -611418.5       3254.5054      101.669        33.103949      966.66018      3253435.6      67.497102      696559       
    282800   303.42912      0.1414        -0.0021766876   0.000754495   -11.507027     -611391.35      3238.3844      101.68782      33.021672      966.70253      3246092.3      67.461376      696220.82    
    282900   295.58138      0.14145       -0.00080914656 -0.0016664967  -11.285351     -611353.71      3154.6284      101.68869      32.922668      966.74488      3236529.5      67.470122      696341.59    
    283000   295.12043      0.1415        -0.001133498   -0.0018165963  -10.646692     -611316.21      3149.7089      101.65392      32.831948      966.78723      3226648.6      67.462006      696288.32    
    283100   301.9224       0.14155        0.0056312944   0.00070107982 -9.7858978     -611274.2       3222.3038      101.62496      32.776579      966.82958      3220430.5      67.46829       696383.69    
    283200   304.92117      0.1416         0.00099290427 -0.00050424782 -9.0141667     -611237.12      3254.3085      101.58434      32.744488      966.87193      3216132.2      67.37351       695435.87    
    283300   300.26701      0.14165       -0.00072499356  5.1430791e-05 -8.367891      -611209.68      3204.6364      101.55138      32.726417      966.91428      3213455.4      67.316641      694879.29    
    283400   295.18986      0.1417        -0.0037542147  -0.00064626291 -7.8802674     -611179.68      3150.4499      101.54425      32.702233      966.95663      3210995.8      67.368436      695444.41    
    283500   297.37584      0.14175       -0.0032867502  -0.00056526922 -7.606601      -611147.01      3173.78        101.55709      32.666846      966.99897      3208067.4      67.37926       695586.61    
    283600   303.32899      0.1418         0.0031068506   0.00098914183 -7.5622339     -611113.71      3237.3158      101.58809      32.651531      967.04132      3207682.4      67.359678      695414.9     
    283700   303.91166      0.14185        0.0017129297  -0.00084093463 -7.5707596     -611086.1       3243.5344      101.62507      32.652549      967.08367      3209090.8      67.431293      696184.74    
    283800   298.76355      0.1419         0.0024653767   0.0015636439  -7.3689537     -611072.13      3188.5906      101.64107      32.686651      967.12602      3213088.8      67.429048      696192.05    
    283900   297.04157      0.14195        0.0010568143  -0.00078692178 -7.0358297     -611075.21      3170.2125      101.66958      32.750844      967.16837      3220442.9      67.438609      696321.26    
    284000   297.67852      0.142         -0.0034544888  -0.0013132747  -6.7225492     -611041.24      3177.0104      101.67038      32.829726      967.21072      3228366.3      67.470087      696676.77    
    284100   301.93065      0.14205       -0.0025767795  -0.00023864876 -6.4738343     -611011.04      3222.3918      101.66069      32.931015      967.25307      3238159.9      67.489137      696903.99    
    284200   303.21765      0.1421         0.0002789534  -0.0017262097  -6.4011581     -610988.67      3236.1275      101.66762      33.049407      967.29542      3250165.2      67.58798       697955.22    
    284300   298.60567      0.14215        0.0016604802  -0.0026879109  -6.4242826     -610960.25      3186.9055      101.68414      33.181711      967.33777      3263849.5      67.639604      698518.9     
    284400   297.621        0.1422         0.00064028317 -0.0023988612  -6.3580847     -610947.39      3176.3965      101.69061      33.313475      967.38012      327