

##---------------INITIALIZATION-------------------------------

units          metal
dimension 	    3
boundary       p p p
atom_style 	atomic
newton 		on


##---------------ATOM DEFINITION------------------------------

read_data 	CNT_2_44_3.53.dat
Reading data file ...
  orthogonal box = (-19.6067 -19.6067 0.283386) to (19.6067 19.6067 383.427)
  4 by 4 by 23 MPI processor grid
  reading atoms ...
  16224 atoms
  read_data CPU = 0.077 seconds


##---------------FORCE FIELDS---------------------------------
#Set the formula(s) LAMMPS uses to compute pairwise interactions. In LAMMPS, pair potentials are defined between pairs #of atoms that are within a cutoff distance and the set of active interactions typically changes over time

pair_style 	airebo 3.0

#Specify the pairwise force field coefficients for one or more pairs of atom types. The number and meaning of the coefficients depends on the pair style.

pair_coeff     * * /ascldap/users/bcma/CH.airebo C
Reading airebo potential file /ascldap/users/bcma/CH.airebo with DATE: 2011-10-25


##---------------SETTINGS-------------------------------------

timestep 	0.0005
variable   ts equal 0.0005


##---------------COMPUTES-----stresses in 3 directions and min/max on x and z atom coordinates --------------------------

compute    1 all stress/atom NULL
compute    2 all reduce sum c_1[1] c_1[2] c_1[3]
compute    3 all property/atom x y # true atoms position
compute    4 all reduce min c_3[1] c_3[2]
compute    5 all reduce max c_3[1] c_3[2]


variable   Lx equal lx
variable   Ly equal ly
variable   Lz equal lz
variable   Vol equal vol
variable   thickn equal 3.4
#making the damp parameter timestep dependent
fix		1 all npt temp 300 300 0.05 iso 0 0 0.05 #$(100.0*dt)x 0 0 0.5 y 0 0 0.5 z 0 0 0.5
thermo 	2000
##---------------RELAXATION--------------------------------------

run            50000
Neighbor list info ...
  update every 1 steps, delay 10 steps, check yes
  max neighbors/atom: 2000, page size: 100000
  master list distance cutoff = 12.2
  ghost atom cutoff = 12.2
  binsize = 6.1, bins = 7 7 63
  1 neighbor lists, perpetual/occasional/extra = 1 0 0
  (1) pair airebo, perpetual
      attributes: full, newton on, ghost
      pair build: full/bin/ghost
      stencil: full/ghost/bin/3d
      bin: standard
Per MPI rank memory allocation (min/avg/max) = 3.807 | 3.91 | 3.948 Mbytes
   Step          Temp          E_pair         E_mol          TotEng         Press          Volume    
         0   0             -120260.42      0             -120260.42     -28858.725      589156.39    
      2000   226.19428     -120166.56      0             -119692.23      27.221893      587812.09    
      4000   304.05516     -119975.79      0             -119338.19     -8.8323762      571804.52    
      6000   190.13606     -119719.96      0             -119321.24     -36.547883      584041.86    
      8000   270.86954     -120012.48      0             -119444.47     -14.58184       562975.36    
     10000   289.00057     -119937.58      0             -119331.55     -722.79946      546452.2     
     12000   326.34334     -119987.3       0             -119302.97     -125.78033      559803.19    
     14000   298.13462     -119963.98      0             -119338.79     -108.26646      556274.75    
     16000   306.96575     -119899.43      0             -119255.73      145.57965      556230.24    
     18000   289.65778     -119932.11      0             -119324.7      -101.72745      558885.61    
     20000   297.72069     -119924.1       0             -119299.78      12.068469      558573.03    
     22000   298.0464      -119935.98      0             -119310.98      240.102        559793.52    
     24000   306.70938     -119922.42      0             -119279.25      110.5997       555782.31    
     26000   300.25344     -119934.78      0             -119305.16      178.60381      560800.54    
     28000   298.05716     -119922.25      0             -119297.23      312.33324      559344.86    
     30000   298.69969     -119917.63      0             -119291.26      253.86158      557659.93    
     32000   298.36445     -119912.67      0             -119287         423.25895      559407.87    
     34000   304.03778     -119923.69      0             -119286.12     -1.955872       559243.53    
     36000   297.71508     -119936.12      0             -119311.81     -36.71629       559966.69    
     38000   295.5688      -119931.3       0             -119311.49     -394.24859      559541.91    
     40000   297.68862     -119931.07      0             -119306.82     -28.475117      559388.99    
     42000   301.36789     -119924.44      0             -119292.47     -11.389434      560266.17    
     44000   299.10269     -119930.31      0             -119303.1      -68.818434      558498.14    
     46000   302.2284      -119925.08      0             -119291.31      45.06264       559704.57    
     48000   299.51406     -119926.23      0             -119298.16     -10.844056      560216.13    
     50000   303.2023      -119929.4       0             -119293.59      227.67725      559049.77    
Loop time of 106.459 on 368 procs for 50000 steps with 16224 atoms

Performance: 20.289 ns/day, 1.183 hours/ns, 469.663 timesteps/s
99.8% CPU use with 368 MPI tasks x 1 OpenMP threads

MPI task timing breakdown:
Section |  min time  |  avg time  |  max time  |%varavg| %total
---------------------------------------------------------------
Pair    | 7.2935     | 46.545     | 74.098     | 381.1 | 43.72
Neigh   | 1.2955     | 1.7546     | 2.0855     |  18.9 |  1.65
Comm    | 15.418     | 42.6       | 80.21      | 375.4 | 40.01
Output  | 0.004937   | 0.0050635  | 0.0056744  |   0.1 |  0.00
Modify  | 10.941     | 13.762     | 18.97      |  59.6 | 12.93
Other   |            | 1.793      |            |       |  1.68

Nlocal:         44.087 ave          72 max           0 min
Histogram: 92 0 0 0 2 72 18 0 6 178
Nghost:        1316.85 ave        1416 max        1221 min
Histogram: 48 36 8 12 154 18 0 0 0 92
Neighs:              0 ave           0 max           0 min
Histogram: 368 0 0 0 0 0 0 0 0 0
FullNghs:      13033.3 ave       22948 max           0 min
Histogram: 92 0 0 44 48 0 0 0 22 162

Total # of neighbors = 4796256
Ave neighs/atom = 295.62722
Neighbor list builds = 418
Dangerous builds = 1


##---------------DEFORMATION--------------------------------------
unfix              1
reset_timestep     0
fix		1 all npt temp 300 300 0.05 x 0 0 0.05 y 0 0 0.05 #$(100.0*dt)
fix        2 all ave/time 1 100 100 c_2[1] c_2[2] c_2[3]
fix        3 all ave/time 1 100 100 v_Lx v_Ly v_Lz v_Vol
fix        4 all  ave/time 1 100 100 c_4[1] c_4[2]
fix        5 all ave/time 1 100 100 c_5[1] c_5[2]
variable   srate equal 1.0e9
variable   srate1 equal "v_srate / 1.0e12"
fix		6 all deform 1 z erate ${srate1} units box remap x
fix		6 all deform 1 z erate 0.001 units box remap x
run            100
Per MPI rank memory allocation (min/avg/max) = 3.809 | 3.911 | 3.948 Mbytes
   Step          Temp          E_pair         E_mol          TotEng         Press          Volume    
         0   303.2023      -119929.4       0             -119293.59      227.67725      559049.77    
       100   298.80975     -119926.27      0             -119299.67      1994.9012      557180.72    
Loop time of 0.30782 on 368 procs for 100 steps with 16224 atoms

Performance: 14.034 ns/day, 1.710 hours/ns, 324.865 timesteps/s
99.6% CPU use with 368 MPI tasks x 1 OpenMP threads

MPI task timing breakdown:
Section |  min time  |  avg time  |  max time  |%varavg| %total
---------------------------------------------------------------
Pair    | 0.015481   | 0.11229    | 0.18359    |  19.4 | 36.48
Neigh   | 0          | 0          | 0          |   0.0 |  0.00
Comm    | 0.028954   | 0.096466   | 0.19246    |  20.0 | 31.34
Output  | 0.00041234 | 0.00043649 | 0.00047223 |   0.0 |  0.14
Modify  | 0.087994   | 0.094933   | 0.10953    |   1.5 | 30.84
Other   |            | 0.003693   |            |       |  1.20

Nlocal:         44.087 ave          72 max           0 min
Histogram: 92 0 0 0 2 74 16 0 10 174
Nghost:        1317.74 ave        1419 max        1224 min
Histogram: 56 32 4 26 150 8 0 0 0 92
Neighs:              0 ave           0 max           0 min
Histogram: 368 0 0 0 0 0 0 0 0 0
FullNghs:      13031.7 ave       22711 max           0 min
Histogram: 92 0 0 30 62 0 0 0 14 170

Total # of neighbors = 4795648
Ave neighs/atom = 295.58974
Neighbor list builds = 0
Dangerous builds = 0
##---------------THERMO-OUTPUTS--------------------------------------
variable cntdiameter equal ((f_5[1]-f_4[1])+(f_5[2]-f_4[2]))/2
#actual volume of cnt
variable   CorVol equal 3.14*v_cntdiameter*v_thickn*f_3[3]
#convertion factor of stress from barr to GPA
variable   ConvoFac equal 1/1.0e4
variable   sigmaxx equal f_2[1]*v_ConvoFac/v_CorVol
variable   sigmayy equal f_2[2]*v_ConvoFac/v_CorVol
variable   sigmazz equal f_2[3]*v_ConvoFac/v_CorVol
variable   StrainPerTs equal v_srate1*v_ts
variable   strain equal v_StrainPerTs*step
thermo 	100
thermo_style custom step temp v_strain v_sigmaxx v_sigmayy v_sigmazz pe ke lx ly lz vol v_cntdiameter v_CorVol
thermo_modify lost warn


##---------------DEFORMATION--------------------------------------
dump           1 all atom 5000 /ascldap/users/bcma/4thCNTRun/CNT_2_44_3.53/CNT_2_44_3.53.lammpstrj
run            1000000
Per MPI rank memory allocation (min/avg/max) = 4.809 | 4.911 | 4.948 Mbytes
   Step          Temp         v_strain      v_sigmaxx      v_sigmayy      v_sigmazz        PotEng         KinEng           Lx             Ly             Lz           Volume     v_cntdiameter     v_CorVol   
       100   298.80975      5e-05         -0.0088088437  -0.009961581   -2.0831446     -119926.27      626.60025      38.461733      38.474881      376.52163      557180.72      35.764301      143759.74    
       200   299.86926      0.0001         0.011564579    0.0060555468  -2.0109121     -119935.39      628.82205      38.417874      38.499327      376.54046      556926.79      35.726012      143613.01    
       300   297.57934      0.00015       -0.0052653647   0.0016880106  -1.9515522     -119930.75      624.0201       38.365306      38.482203      376.55929      555945.17      35.68299       143447.24    
       400   300.7136       0.0002         0.0023548853   0.0012051232  -1.8341781     -119935.53      630.59261      38.279093      38.485227      376.57811      554767.19      35.686588      143468.88    
       500   300.67795      0.00025       -0.0091318237  -0.0024984661  -1.8696435     -119934.95      630.51785      38.198755      38.445238      376.59694      553055.28      35.674748      143428.45    
       600   301.31379      0.0003         0.010983164    0.0027624202  -1.7664014     -119937.72      631.8512       38.086213      38.411236      376.61576      550965.71      35.704535      143555.38    
       700   297.7274       0.00035        0.00079839382 -0.0026706852  -1.7844134     -119941.15      624.33058      37.995628      38.394827      376.63459      549447.93      35.522726      142831.53    
       800   299.1027       0.0004        -0.0018679933  -0.0014338178  -1.7266563     -119948.21      627.21458      37.847092      38.349949      376.65342      546687.6       35.456867      142573.85    
       900   301.94082      0.00045        0.002951222   -0.00054491737 -1.6969818     -119954.34      633.16607      37.796995      38.27256       376.67224      544889.45      35.405529      142374.53    
      1000   302.20623      0.0005        -0.0025990285  -0.0016966282  -1.6803075     -119960.91      633.72263      37.675607      38.201372      376.69107      542156.34      35.300659      141959.92    
      1100   299.2414       0.00055       -0.0073712123   0.004247785   -1.5509458     -119963.83      627.50543      37.600147      38.111094      376.70989      539818.77      35.344503      142143.34    
      1200   303.70635      0.0006         0.0018753947  -0.0087667354  -1.5797538     -119974.89      636.86836      37.502534      37.958882      376.72872      536293.77      35.361794      142219.98    
      1300   300.27178      0.00065        0.0093420817   0.0080773375  -1.527086      -119973.94      629.66612      37.380025      37.874903      376.74755      533385.92      35.224426      141674.59    
      1400   299.30166      0.0007         0.00052289836 -0.002698961   -1.4658054     -119977.05      627.63179      37.271655      37.768052      376.76637      530365.65      35.057186      141008.99    
      1500   304.46445      0.00075       -0.010538466    0.0032665493  -1.4084787     -119992.1       638.45811      37.12202       37.634939      376.7852       526400.94      34.956953      140612.85    
      1600   301.05736      0.0008         0.0084284405  -0.004347677   -1.4003724     -119992.82      631.31347      37.016816      37.440632      376.80402      522225.13      34.683726      139520.78    
      1700   300.45832      0.00085        0.0020953993   0.0045976849  -1.3607465     -119998.19      630.05729      36.841537      37.289994      376.82285      517687.04      34.655132      139412.72    
      1800   307.49084      0.0009         0.0011081795   0.0062128084  -1.2721512     -120020.37      644.80441      36.710716      37.056384      376.84168      512642.75      34.496334      138780.83    
      1900   303.56418      0.00095       -0.0005705718  -0.00057395385 -1.2873944     -120022.27      636.57023      36.511622      36.860569      376.8605       507193.61      34.319534      138076.45    
      2000   304.3653       0.001          0.0027812177   0.0045624697  -1.2219339     -120032.92      638.25018      36.355811      36.574488      376.87933      501134.62      34.128401      137314.33    
      2100   298.04713      0.00105        0.0022583269   0.0055889864  -1.1431224     -120029.93      625.00105      36.135709      36.348629      376.89815      495049.51      33.860498      136243.24    
      2200   302.54375      0.0011         0.0062415178   0.0016734789  -1.154339      -120050.57      634.43042      35.941392      36.065449      376.91698      488575.79      33.603527      135216.03    
      2300   304.4372       0.00115        0.0026543358   0.0033355024  -1.0660089     -120064.86      638.40095      35.72304       35.776057      376.93581      481735.09      33.507074      134834.65    
      2400   302.03362      0.0012        -0.0017775478   0.0010757065  -1.0752913     -120068.92      633.36067      35.460909      35.522552      376.95463      474835.42      33.246061      133791       
      2500   300.48998      0.00125        0.0085730578   0.0062858903  -0.98252706    -120075.3       630.12369      35.226065      35.226317      376.97346      467780.53      32.905498      132427.1     
      2600   301.90939      0.0013         0.0046039034   0.0029095405  -0.91690871    -120086.44      633.10016      34.959637      34.972132      376.99228      460915.68      32.681378      131531.7     
      2700   301.97819      0.00135        0.005356253    0.0030765456  -0.88644171    -120093.28      633.24444      34.69792       34.665822      377.01111      453481         32.3769        130312.78    
      2800   299.90375      0.0014         0.0024549096   0.0033398509  -0.86866262    -120096.35      628.89435      34.402335      34.394744      377.02994      446124.25      32.118733      129280.15    
      2900   301.325        0.00145        0.0058280014   0.0078952402  -0.73675699    -120103.37      631.87471      34.08302       34.083972      377.04876      438011.79      31.866048      128269.48    
      3000   297.09692      0.0015         0.0068527266   0.0065159102  -0.73406642    -120096.59      623.00848      33.735609      33.789648      377.06759      429824.75      31.536551      126949.51    
      3100   295.55198      0.00155        0.0055225212   0.005499827   -0.64278572    -120090.36      619.76876      33.40539       33.487401      377.08642      421831.38      31.387209      126354.64    
      3200   297.66322      0.0016         0.0038982993   0.0049301238  -0.53937138    -120081.27      624.196        33.08035       33.191663      377.10524      414058.48      31.241138      125772.89    
      3300   298.32861      0.00165        0.0046363076   0.0032838927  -0.36241076    -120071.89      625.59131      32.797967      32.916658      377.12407      407142.93      30.930458      124528.34    
      3400   290.22873      0.0017         0.0022487127   0.0013564221  -0.36700005    -120041.2       608.60597      32.578852      32.665621      377.14289      401358.64      30.631938      123332.64    
      3500   285.76964      0.00175        0.0038013797  -0.00034711453 -0.22305649    -120013.99      599.25532      32.399058      32.472286      377.16172      396801.09      30.358789      122238.97    
      3600   293.31765      0.0018        -0.0080283997   0.007490821   -0.14697361    -120008.17      615.0834       32.284676      32.352635      377.18055      393962.95      30.39932       122408.27    
      3700   296.88894      0.00185        0.0042639938  -0.0093325596  -0.12997456    -119994.46      622.57234      32.276332      32.336357      377.19937      393682.61      30.313698      122069.59    
      3800   302.89182      0.0019        -0.002288174   -0.0017504887  -0.046144499   -119990.91      635.16032      32.34496       32.456019      377.2182       395999.37      30.288664      121974.87    
      3900   308.78709      0.00195       -0.0088978008  -0.0011963901  -0.014241157   -120004.68      647.52262      32.513451      32.625943      377.23702      400166.24      30.3829        122360.48    
      4000   308.12359      0.002         -0.0044461216  -0.0055552006  -0.052471772   -120025.1       646.13127      32.7627        32.849508      377.25585      406017.3       30.58009       123160.76    
      4100   307.7781       0.00205       -0.0039043085  -0.0096999825  -0.084732039   -120049.85      645.40678      33.050914      33.096041      377.27468      412683.57      30.878209      124367.64    
      4200   305.01926      0.0021        -0.0019006624  -0.0017494285  -0.015628876   -120068.44      639.62153      33.348449      33.372213      377.2935       419894.3       31.116485      125333.59    
      4300   304.79373      0.00215       -0.0036856774  -0.0045510329  -0.049514076   -120089.37      639.14859      33.633831      33.669318      377.31233      427279.1       31.468285      126756.92    
      4400   300.81933      0.0022        -0.0085342078  -0.0060030311   0.0056118147  -120096.31      630.81433      33.923757      33.969577      377.33115      434827.25      31.627919      127406.3     
      4500   297.79633      0.00225       -0.004707064   -0.0055133972   0.011672328   -120096.61      624.47512      34.200122      34.267859      377.34998      442240.96      31.827924      128218.37    
      4600   300.4614       0.0023         0.00088310489  0.00059594562  0.079767256   -120096.82      630.06375      34.485421      34.568214      377.36881      449861.14      32.072598      129210.49    
      4700   298.89214      0.00235       -0.0071198261  -0.0053530478   0.063837312   -120082.7       626.77302      34.728141      34.866931      377.38763      456964.98      32.319879      130213.2     
      4800   301.89999      0.0024         0.00052839779  0.0012839414   0.13064606    -120077.09      633.08045      34.973024      35.1412        377.40646      463830.29      32.619143      131425.46    
      4900   301.08168      0.00245        0.0016455317  -0.0065713674   0.14835477    -120068.69      631.36448      35.205527      35.397487      377.42528      470342.54      32.837746      132312.83    
      5000   299.40974      0.0025        -0.0092813625  -0.00086473798  0.21595415    -120058.6       627.85843      35.415348      35.638974      377.44411      476397.37      33.020725      133056.74    
      5100   300.54804      0.00255       -0.0045138583  -0.0051123882   0.21636741    -120052.76      630.24544      35.650149      35.872         377.46294      482715.51      33.261305      134032.84    
      5200   300.46223      0.0026        -0.0019641384   5.975635e-05   0.23871675    -120045.41      630.06549      35.85999       36.08087       377.48176      488408.41      33.477159      134909.39    
      5300   297.41463      0.00265        0.0038066535   0.0018191604   0.27497892    -120031.44      623.6747       36.067541      36.263232      377.50059      493742.68      33.592102      135379.36    
      5400   299.92529      0.0027         0.0026171535   0.0053634368   0.30222337    -120029.21      628.93952      36.255258      36.449389      377.51942      498885.11      33.778885      136138.9     
      5500   300.27852      0.00275        0.0047897228  -0.003680142    0.41676464    -120020.81      629.68025      36.462586      36.580263      377.53824      503564.64      34.045254      137219.29    
      5600   298.49079      0.0028        -0.0059715424   0.0032994951   0.40843314    -120010.12      625.9314       36.628174      36.747264      377.55707      508186.21      34.160949      137692.46    
      5700   298.05067      0.00285        0.0060467439  -0.0015005833   0.46325048    -120002.46      625.00848      36.819107      36.853287      377.57589      512334.67      34.295756      138242.72    
      5800   298.60132      0.0029         0.0060759288   0.0023093396   0.51970577    -119996.69      626.1632       36.973303      37.005814      377.59472      516635.35      34.505325      139094.41    
      5900   301.07904      0.00295       -0.012761385   -0.0020593519   0.54078058    -119994.81      631.35893      37.106765      37.123353      377.61355      520173.05      34.498969      139075.72    
      6000   297.72374      0.003          0.0064621971   0.0021238781   0.64199026    -119982.02      624.32291      37.251107      37.205943      377.63237      523384.34      34.526225      139192.54    
      6100   299.38192      0.00305        0.0043050323  -0.0038280471   0.62920307    -119979.14      627.80009      37.349169      37.321062      377.6512       526412.02      34.734761      140040.23    
      6200   295.66056      0.0031        -0.0086248399   0.015453939    0.73589677    -119966.64      619.99645      37.49178       37.362697      377.67002      529037.92      34.780989      140233.6     
      6300   298.8344       0.00315        0.0064640287  -0.014840242    0.74515673    -119966.91      626.65196      37.599072      37.40134       377.68885      531127.1       34.860579      140561.5     
      6400   299.39558      0.0032        -0.0030804963   0.0012885456   0.75708682    -119966.04      627.82875      37.669628      37.42943       377.70768      532549.95      34.91809       140800.41    
      6500   299.72157      0.00325        0.0019151715   0.0012134696   0.85989784    -119964.12      628.51235      37.736252      37.502249      377.7265       534556.41      35.026128      141243.1     
      6600   301.50174      0.0033        -0.0068862244   1.7956495e-05  0.83020988    -119962         632.24532      37.7937        37.513413      377.74533      535556.25      35.038889      141301.59    
      6700   299.06855      0.00335        0.0095559771   0.0028455329   0.94361015    -119954.17      627.14296      37.852606      37.550611      377.76415      536949.62      35.169625      141835.88    
      6800   301.70322      0.0034         0.00047517461 -0.00713423     0.93350885    -119959.78      632.66784      37.866744      37.56545       377.78298      537389.22      35.232999      142098.55    
      6900   298.27952      0.00345       -0.0015354872   0.0056047394   1.0482732     -119948.53      625.48837      37.861707      37.59653       377.80181      537789.09      35.268429      142248.53    
      7000   302.4855       0.0035        -0.010142889    0.004344962    1.0472254     -119949.09      634.30825      37.86864       37.592012      377.82063      537849.73      35.189241      141936.21    
      7100   301.37019      0.00355        0.0085571198  -0.00059388952  1.1306995     -119946.61      631.96947      37.885994      37.568136      377.83946      537781.23      35.105315      141604.75    
      7200   298.81779      0.0036        -0.0013627931  -0.00084397747  1.1161316     -119953.56      626.61712      37.891467      37.574623      377.85828      537978.59      35.195067      141973.86    
      7300   306.19637      0.00365       -0.0043800908   0.0022102051   1.1454893     -119973.59      642.08991      37.885662      37.55481       377.87711      537639.32      35.186032      141944.48    
      7400   294.1032       0.0037         0.0045044212  -0.0081717425   1.2049975     -119949.46      616.73069      37.904112      37.499949      377.89594      537142.14      35.152366      141815.74    
      7500   297.36721      0.00375        0.007594676    0.001356348    1.2613815     -119953.04      623.57527      37.831869      37.483856      377.91476      535915.01      35.048599      141404.15    
      7600   306.3624       0.0038        -0.0018588407   0.0032235648   1.3262264     -119965.63      642.43807      37.756088      37.447912      377.93359      534355.26      34.97817       141127.03    
      7700   298.98819      0.00385       -0.00073855758 -0.0029577372   1.3233025     -119950.44      626.97444      37.682049      37.398156      377.95242      532625.34      34.924794      140918.7     
      7800   303.27459      0.0039        -0.0082167845   0.0076851127   1.3891768     -119970.21      635.96298      37.567436      37.344762      377.97124      530273.6       34.894179      140802.18    
      7900   303.02382      0.00395        0.0075981887  -0.0015340837   1.4506826     -119975.66      635.43711      37.494451      37.228399      377.99007      527620.61      34.844517      140608.79    
      8000   301.19268      0.004          0.0054760163   0.00018625576  1.5123881     -119977.07      631.59724      37.364642      37.179903      378.00889      525135.16      34.813387      140490.17    
      8100   299.18568      0.00405       -0.0079099905  -0.0030155772   1.5241919     -119981.04      627.38859      37.235334      37.080509      378.02772      521944.81      34.616803      139703.81    
      8200   297.38429      0.0041         0.0040557892   5.5643977e-05  1.607724      -119981.18      623.61108      37.100876      36.923829      378.04655      517888.38      34.498682      139234.04    
      8300   303.3886       0.00415        0.0059998317   0.0059008491   1.6514541     -119999.36      636.20206      36.946245      36.836791      378.06537      514539.82      34.409475      138880.92    
      8400   301.53644      0.0042        -0.0084392791  -0.0030190619   1.7566216     -120002.7       632.3181       36.809491      36.660756      378.0842       510210.93      34.268591      138319.18    
      8500   299.45372      0.00425        0.0038225414  -0.0016883458   1.8336157     -120001.67      627.95066      36.62829       36.508304      378.10302      505613.27      34.167519      137918.09    
      8600   299.99953      0.0043         0.0017793395   0.008261785    1.8689231     -120010.66      629.09521      36.440212      36.359694      378.12185      500994.41      33.975242      137148.79    
      8700   302.99738      0.00435        0.0013195439  -0.0063542911   1.9273182     -120024.87      635.38167      36.280951      36.202392      378.14068      496671.59      33.785349      136389.03    
      8800   303.37878      0.0044        -0.0089098158  -0.00028558083  1.9550485     -120033.93      636.18147      36.052839      36.0336        378.1595       491272.14      33.659833      135889.1     
      8900   300.26634      0.00445        0.014393333   -0.00012174226  2.0636745     -120036.47      629.6547       35.859193      35.831813      378.17833      485921.3       33.611605      135701.15    
      9000   301.32072      0.0045        -0.0033109706   0.010002136    2.1204531     -120046.63      631.86573      35.659206      35.617198      378.19715      480341.02      33.372456      134742.34    
      9100   302.68613      0.00455        0.003193408    0.0031503774   2.2077992     -120057.45      634.72898      35.43757       35.380158      378.21598      474202.22      33.103454      133662.88    
      9200   301.07071      0.0046        -0.00033509677  0.0017555523   2.2769962     -120062.28      631.34146      35.206887      35.131406      378.23481      467826.32      32.963984      133106.37    
      9300   303.02709      0.00465        0.011730286    0.0044185267   2.3956196     -120073.68      635.44396      34.945066      34.856812      378.25363      460740.76      32.741391      132214.13    
      9400   300.4546       0.0047         0.003255521    0.0094037296   2.4753872     -120075.69      630.0495       34.719141      34.587144      378.27246      454243.16      32.479392      131162.68    
      9500   298.09846      0.00475        0.0013697422   0.00053599747  2.54766       -120077.58      625.10869      34.438963      34.289734      378.29128      446725.27      32.310305      130486.34    
      9600   300.18604      0.0048         0.0073320791   0.0081464192   2.6655858     -120086.36      629.48632      34.179319      33.972628      378.31011      439279.06      32.007375      129269.38    
      9700   295.32427      0.00485        0.0054475936   0.0064811134   2.7460667     -120077.47      619.29126      33.901242      33.695318      378.32894      432170.11      31.819121      128515.46    
      9800   301.82647      0.0049         0.0064718552   0.0043503285   2.8471751     -120084.01      632.92628      33.649167      33.388693      378.34776      425074.36      31.523818      127329.09    
      9900   303.25539      0.00495       -0.0010714755   0.0047794623   2.9082556     -120078.26      635.9227       33.369317      33.134487      378.36659      418350.56      31.175734      125929.4     
     10000   296.52553      0.005          0.0088977863  -0.0012166951   3.0189851     -120059.93      621.81028      33.112293      32.847366      378.38542      411551.5       30.884874      124760.72    
     10100   296.73974      0.00505        0.0014935589   0.0043426306   3.2000035     -120049.38      622.25947      32.852265      32.636737      378.40424      405721.52      30.651298      123823.34    
     10200   289.68825      0.0051        -0.0017025443   0.0013004624   3.332689      -120021.36      607.47259      32.658619      32.43726       378.42307      400884.79      30.438864      122971.28    
     10300   288.49535      0.00515        0.003019557   -0.0045730241   3.4657718     -120000.38      604.97109      32.546832      32.311758      378.44189      397986.67      30.286759      122362.87    
     10400   292.28045      0.0052        -0.0067972242   0.0055774721   3.5264        -119989.89      612.90841      32.495566      32.290584      378.46072      397119.13      30.166817      121884.35    
     10500   297.41061      0.00525       -0.0031792215  -0.0058060122   3.555975      -119983.76      623.66628      32.574418      32.279431      378.47955      397965.06      30.231985      122153.73    
     10600   305.37488      0.0053         0.00044846501 -0.0096821931   3.5570314     -119992.46      640.36725      32.677995      32.424844      378.49837      401048.89      30.280172      122354.52    
     10700   305.89358      0.00535       -0.0074819042   0.0072501832   3.5629371     -120007.51      641.45496      32.875869      32.600582      378.5172       405684.31      30.535542      123392.54    
     10800   307.04726      0.0054         0.0040847918  -0.015435861    3.5507537     -120031.68      643.87421      33.083038      32.845932      378.53602      411333.61      30.665786      123925.02    
     10900   307.09408      0.00545       -0.0092938031  -0.0024109813   3.5586819     -120053.52      643.97239      33.330852      33.108628      378.55485      417749.95      30.989617      125239.89    
     11000   303.86313      0.0055        -0.0090019224  -0.00076138048  3.5229063     -120067.74      637.19713      33.598474      33.371386      378.57368      424467.27      31.221905      126184.92    
     11100   302.51522      0.00555       -0.0018338874  -0.0039403696   3.5214125     -120081.2       634.37059      33.897644      33.640016      378.5925       431715.58      31.439456      127070.49    
     11200   298.54591      0.0056        -0.0027731659  -0.010069829    3.5155088     -120082.94      626.047        34.184318      33.897259      378.61133      438717.64      31.741047      128295.82    
     11300   299.46193      0.00565       -0.004503043   -0.0040565768   3.5420988     -120084.58      627.96787      34.458175      34.165892      378.63015      445759.12      31.976393      129253.51    
     11400   298.05994      0.0057        -0.002728917   -0.0027913427   3.5515788     -120073.63      625.02792      34.729413      34.415545      378.64898      452573.26      32.104367      129777.25    
     11500   301.90588      0.00575       -0.0083451384   0.0040245977   3.523505      -120071.5       633.0928       34.972638      34.653141      378.66781      458911.97      32.376155      130882.42    
     11600   300.00235      0.0058        -0.00073471257 -0.005116315    3.5339492     -120061.1       629.10114      35.208174      34.884705      378.68663      465113.06      32.614875      131854.01    
     11700   300.6636       0.00585       -0.0067896863  -0.0029918134   3.6105562     -120056.45      630.48777      35.42898       35.102114      378.70546      470970.26      32.816079      132674.03    
     11800   297.0674       0.0059         0.0017520644  -0.0064869381   3.5354052     -120041.08      622.94658      35.634066      35.327543      378.72428      476762.38      33.160173      134071.85    
     11900   297.62456      0.00595        0.0020126756   0.0087993711   3.5763544     -120033.13      624.11494      35.852949      35.525852      378.74311      482407.58      33.455112      135271.06    
     12000   301.33192      0.006          0.0037999061  -0.0072934042   3.5621016     -120033.8       631.88922      36.045037      35.727788      378.76194      487773.21      33.571033      135746.52    
     12100   296.81858      0.00605       -0.0022061442   0.0039022781   3.6208518     -120018.15      622.4248       36.230115      35.90829       378.78076      492779.19      33.658626      136107.47    
     12200   297.88614      0.0061         0.0075765252   0.01021782     3.6568678     -120011.92      624.66346      36.381611      36.10599       378.79959      497588.9       33.950137      137293.1     
     12300   298.89554      0.00615       -0.00015777818 -0.0051051523   3.6695445     -120008.7       626.78017      36.551652      36.272445      378.81841      502244.19      33.974581      137398.77    
     12400   299.48392      0.0062        -0.003696317   -0.0032037824   3.7101891     -120004.25      628.01398      36.674607      36.433509      378.83724      506196.49      34.06425       137768.26    
     12500   299.80509      0.00625        0.0018003236   0.00071077886  3.6877337     -119998.87      628.68748      36.788586      36.54028       378.85607      509283.04      34.299323      138725.87    
     12600   299.00313      0.0063         0.011337114    0.0083577941   3.7568921     -119990.57      627.00577      36.903029      36.669548      378.87489      512700.09      34.476477      139449.31    
     12700   298.53135      0.00635       -0.0096578859  -0.00096715794  3.8005383     -119983.71      626.01646      37.01999       36.801857      378.89372      516206.45      34.478246      139463.4     
     12800   297.80894      0.0064        -0.0051230356  -0.0075422047   3.8345398     -119976.08      624.50157      37.089412      36.886435      378.91255      518388.8       34.49611       139542.59    
     12900   301.79035      0.00645        0.0055402422   0.0043365992   3.8498761     -119979.83      632.85053      37.164821      36.962401      378.93137      520538.41      34.524312      139663.61    
     13000   300.13143      0.0065        -0.0019586159   0.0039888427   3.8799236     -119972.31      629.3718       37.236707      37.055929      378.9502       522890.94      34.657271      140208.45    
     13100   298.87195      0.00655       -0.0022862025  -0.0064675897   3.9301342     -119963.1       626.73069      37.32312       37.090554      378.96902      524620.16      34.712351      140438.25    
     13200   297.63459      0.0066         0.0043221235  -0.0061721835   3.9773353     -119955.95      624.13596      37.345528      37.16397       378.98785      526000.3       34.78473       140738.07    
     13300   299.25396      0.00665       -0.0014283226   0.012360757    4.0036235     -119958.6       627.53176      37.422746      37.19719       379.00668      527585.26      34.977966      141526.93    
     13400   302.64649      0.0067        -0.001531123   -0.0065390603   4.0220631     -119964.9       634.64585      37.447548      37.225459      379.0255       528362.37      35.013049      141675.92    
     13500   302.82205      0.00675       -0.0021840573  -0.00031042139  4.0809837     -119961.2       635.01401      37.501593      37.217085      379.04433      529032.16      35.029121      141747.99    
     13600   301.29388      0.0068         0.016457252   -0.0040101484   4.1253064     -119950.46      631.80945      37.517514      37.255076      379.06315      529823.33      34.879989      141151.53    
     13700   301.3827       0.00685       -0.015335201    0.007614773    4.1957797     -119947.03      631.99571      37.537476      37.228199      379.08198      529749.11      34.861054      141081.91    
     13800   300.64705      0.0069         0.0025609935  -0.0026432682   4.2543907     -119950.06      630.45306      37.535567      37.208342      379.10081      529465.91      34.992947      141622.71    
     13900   299.47925      0.00695        0.0032173875   0.00019704528  4.301206      -119957.69      628.0042       37.525367      37.154159      379.11963      528577.48      34.966579      141523.02    
     14000   299.26621      0.007         -0.0013911518   0.0054657715   4.3559251     -119959.22      627.55746      37.488914      37.143007      379.13846      527931.72      34.79722       140844.55    
     14100   301.17185      0.00705       -0.01291615    -0.0032858022   4.3685842     -119964.39      631.55356      37.472376      37.057854      379.15728      526515.19      34.759849      140700.28    
     14200   297.44729      0.0071         0.01292943    -0.00054559419  4.4906993     -119961.52      623.7432       37.41601       36.957221      379.17611      524321.6       34.636589      140208.31    
     14300   297.26948      0.00715        0.0051606524  -7.0654743e-05  4.5104891     -119967.31      623.37034      37.363035      36.882803      379.19494      522550.89      34.830185      140998.98    
     14400   301.4171       0.0072        -0.010483433    0.0019627565   4.5576517     -119980.06      632.06784      37.287702      36.789162      379.21376      520199.12      34.739412      140638.5     
     14500   298.31383      0.00725       -0.0046772882  -0.0045336226   4.6304099     -119975.27      625.56033      37.247912      36.638815      379.23259      517546.05      34.625769      140185.39    
     14600   299.57545      0.0073         0.012248764    0.0023029263   4.6647237     -119979.09      628.20592      37.125569      36.531877      379.25141      514366.07      34.582241      140016.11    
     14700   302.91329      0.00735       -0.00055911208  0.006319142    4.7749161     -119985.83      635.20534      37.063051      36.41954       379.27024      511946.28      34.421992      139374.22    
     14800   300.24893      0.0074        -0.0026059463  -0.0093552855   4.8042507     -119986.81      629.61819      36.952816      36.270505      379.28907      508360.11      34.424365      139390.74    
     14900   300.02518      0.00745       -0.0016497486   0.0068402816   4.8925642     -119994.43      629.149        36.810374      36.151341      379.30789      504761.85      34.259028      138728.15    
     15000   300.65291      0.0075         0.0088909984  -0.0017275954   4.9448012     -120000.27      630.46535      36.711162      35.999169      379.32672      501307.31      34.049814      137887.81    
     15100   302.90235      0.00755       -0.0065365967   0.0020760552   5.084776      -120011.18      635.1824       36.560381      35.832657      379.34555      496963.75      33.820761      136967.03    
     15200   302.47543      0.0076         0.0025180746  -0.0014242427   5.1103437     -120015.72      634.28714      36.398853      35.640226      379.36437      492135.49      33.7349        136626.09    
     15300   300.90132      0.00765        0.0060561851   0.0060404472   5.1691043     -120019.24      630.98627      36.221343      35.449447      379.3832       487138.11      33.613953      136143.01    
     15400   301.07338      0.0077        -0.006290261    0.0037762363   5.3150413     -120025.48      631.34706      36.045084      35.240437      379.40202      481933.33      33.425939      135388.24    
     15500   303.42481      0.00775        0.0058414805  -0.0020289446   5.3864988     -120038.68      636.27798      35.81343       35.033105      379.42085      476042.52      33.201361      134485.28    
     15600   302.13017      0.0078         0.0052315165   0.0083828644   5.5173629     -120043.39      633.56314      35.582631      34.801058      379.43968      469865.17      32.968091      133547.03    
     15700   302.48799      0.00785        0.0016182385   0.00034965379  5.5938876     -120052.44      634.31349      35.359861      34.553704      379.4585       463627.78      32.835994      133018.53    
     15800   299.1521       0.0079        -0.00022637774 -0.0014213862   5.6990273     -120053.65      627.31816      35.127529      34.303186      379.47733      457264.92      32.660387      132313.71    
     15900   302.74916      0.00795        0.00048968783 -0.0010548091   5.8026258     -120066.09      634.86115      34.880135      34.039072      379.49615      450571.01      32.386146      131209.22    
     16000   301.61162      0.008          0.0043069901  -0.00032853647  5.9364135     -120068.76      632.47575      34.64854       33.783994      379.51498      444247.35      32.065233      129915.51    
     16100   301.69151      0.00805       -0.002369669   -0.00057218373  6.0140493     -120073.32      632.64327      34.390614      33.533689      379.53381      437695.14      31.865566      129112.95    
     16200   298.53034      0.0081        -0.00032962575  0.009744551    6.1598105     -120068.4       626.01435      34.124845      33.246622      379.55263      430616.06      31.627899      128156.32    
     16300   299.97248      0.00815        0.0092001772   0.0052476466   6.27498       -120061.22      629.03849      33.881194      32.961134      379.57146      423891.2       31.380123      127158.64    
     16400   299.6885       0.0082         0.004390869    0.00022207045  6.4376307     -120052.41      628.443        33.627113      32.683197      379.59028      417185.49      31.203385      126448.73    
     16500   297.7994       0.00825       -0.0013126272   0.0026006562   6.559025      -120040.51      624.48157      33.402846      32.436841      379.60911      411299.94      31.004396      125648.58    
     16600   296.84573      0.0083        -0.00010428092  0.0039959999   6.6574193     -120027.28      622.48174      33.196429      32.226205      379.62794      406124.05      30.813996      124883.16    
     16700   291.51806      0.00835        0.0032200555   0.0015414738   6.7872459     -120002.6       611.30969      33.056865      32.072243      379.64676      402504.46      30.628942      124139.33    
     16800   287.59986      0.0084         0.0055179934  -0.004452975    6.8997572     -119977.79      603.09327      32.966801      31.977556      379.66559      400242.59      30.533044      123756.79    
     16900   295.67702      0.00845       -0.0066652082   0.0078629409   6.9862066     -119977.77      620.03096      32.933775      31.943134      379.68441      399431.03      30.473516      123521.63    
     17000   303.91454      0.0085         0.008121849   -0.0045049199   7.0410066     -119983.23      637.30495      33.014493      31.992701      379.70324      401051.21      30.460585      123475.34    
     17100   301.49408      0.00855       -0.001298715    0.0016747059   7.0604182     -119981.09      632.22927      33.130183      32.124585      379.72207      404135.68      30.553008      123856.13    
     17200   306.379        0.0086        -0.010477634   -0.0015830657   7.072439      -120007.4       642.47288      33.314425      32.316176      379.74089      408827.07      30.627145      124162.82    
     17300   308.8536       0.00865       -0.0042266321  -0.0091187039   6.987404      -120030.29      647.66208      33.530926      32.534025      379.75972      414278.35      30.881189      125198.93    
     17400   306.63827      0.0087         0.0020577736   0.00094287089  6.991331      -120043.09      643.01657      33.781049      32.783704      379.77855      420592.55      31.060229      125931.03    
     17500   302.2105       0.00875       -0.0044571454  -0.0013189192   6.9274657     -120050.14      633.7316       34.019358      33.045123      379.79737      426958.28      31.328498      127025.01    
     17600   298.57705      0.0088        -0.0010027822  -0.0074307394   6.9178306     -120055.25      626.1123       34.267899      33.299241      379.8162       433406.38      31.568323      128003.75    
     17700   301.01997      0.00885       -0.0014732154  -0.0071024072   6.8855248     -120068.17      631.23506      34.519987      33.560708      379.83502      440044.66      31.775598      128850.6     
     17800   298.47114      0.0089        -0.0058119862  -0.0050990036   6.9163093     -120064.27      625.89019      34.756363      33.829388      379.85385      446627.03      31.867504      129229.68    
     17900   300.25493      0.00895       -0.0041360942  -0.0036276261   6.8971117     -120058.59      629.63079      35.014221      34.065439      379.87268      453102.56      32.080257      130098.89    
     18000   303.28742      0.009         -0.0053022389  -0.004664049    6.8754474     -120054.98      635.98988      35.250883      34.319043      379.8915       459583.84      32.29786       130987.85    
     18100   300.77539      0.00905       -0.0042802238   0.0015309657   6.8399706     -120042.51      630.72219      35.463175      34.531685      379.91033      465239.39      32.610857      132263.81    
     18200   297.74076      0.0091         0.0037184435  -0.00090448555  6.8252665     -120030.86      624.35859      35.679971      34.768636      379.92915      471318.8       32.757269      132864.21    
     18300   298.21213      0.00915       -0.0040459922   0.003565638    6.8077682     -120024.3       625.34707      35.884088      34.949258      379.94798      476501.21      33.007842      133887.17    
     18400   298.13171      0.0092         0.0041321093   0.0026348755   6.834876      -120017.12      625.17841      36.051744      35.151645      379.96681      481523.61      33.191715      134639.67    
     18500   299.21053      0.00925        0.009042311   -0.0069778828   6.8199528     -120016.4       627.44069      36.255652      35.286768      379.98563      486132.63      33.384314      135427.65    
     18600   300.7976       0.0093        -0.0082183171   0.009445675    6.8863653     -120011.94      630.76875      36.415366      35.472947      380.00446      490874.69      33.610523      136352.05    
     18700   301.21999      0.00935       -0.00062067556 -0.0083572174   6.860383      -120007.37      631.65451      36.561566      35.629572      380.02328      495046.05      33.724493      136821.18    
     18800   299.86925      0.0094         0.00084470617  0.0010349491   6.8650332     -119998.1       628.82201      36.692582      35.752032      380.04211      498552.3       33.993459      137919.22    
     18900   298.76443      0.00945       -0.00036480566  0.010556223    6.8340928     -119987.15      626.50524      36.817898      35.913626      380.06094      502540.98      34.271612      139054.63    
     19000   302.41853      0.0095         0.0065072241  -0.007598405    6.8592193     -119988.31      634.16783      36.969949      36.000115      380.07976      505856.69      34.285139      139116.41    
     19100   299.74001      0.00955       -0.0085146477  -0.00045395971  6.9025893     -119975.03      628.55101      37.062266      36.136282      380.09859      509063.19      34.457548      139822.91    
     19200   299.78115      0.0096         0.0011210713  -0.000676935    6.9314805     -119970.3       628.63728      37.178002      36.199926      380.11741      511577.58      34.402438      139606.19    
     19300   300.20221      0.00965        0.0011782472   0.002649707    6.9964453     -119964.71      629.52023      37.267228      36.289313      380.13624      514097.05      34.425213      139705.54    
     19400   300.92085      0.0097         0.00061308403 -0.0034985752   7.0156928     -119960.31      631.02721      37.363807      36.351808      380.15507      516342.55      34.54451       140196.61    
     19500   297.86881      0.00975        0.00072922757 -0.00067286832  7.0585788     -119951.76      624.62713      37.410652      36.418958      380.17389      517970.57      34.494573      140000.88    
     19600   298.84101      0.0098         0.003039386    0.0085897991   7.0455729     -119952.53      626.66581      37.47215       36.444101      380.19272      519205.93      34.680482      140762.39    
     19700   302.91272      0.00985        0.0020277081  -0.0018748151   7.1324609     -119955.32      635.20415      37.51741       36.512311      380.21154      520831.77      34.655889      140669.53    
     19800   301.94585      0.0099        -0.0047851494  -0.0079007774   7.1671208     -119942.48      633.17663      37.524003      36.524794      380.23037      521127.19      34.650263      140653.66    
     19900   302.36332      0.00995        0.0013003269   0.0059162533   7.2554049     -119943.69      634.05205      37.528916      36.536111      380.2492       521382.72      34.608839      140492.47    
     20000   303.71634      0.01           0.0024969692   0.0010321032   7.2713901     -119951.93      636.88932      37.575863      36.505109      380.26802      521617.82      34.539157      140216.54    
     20100   302.76105      0.01005       -0.00061056279 -0.0033277499   7.3226476     -119954.64      634.8861       37.544856      36.535916      380.28685      521653.05      34.528447      140180       
     20200   300.26343      0.0101        -0.0092483418   0.0063861979   7.419185      -119949.41      629.64861      37.56433       36.472071      380.30568      521037.38      34.634473      140617.41    
     20300   299.15509      0.01015        0.011315463   -0.0054495514   7.4096734     -119945.51      627.32443      37.540988      36.446265      380.3245       520370.94      34.677832      140800.42    
     20400   300.00674      0.0102        -0.0027329298   0.0095997873   7.5067627     -119944.42      629.11033      37.517423      36.408692      380.34333      519533.89      34.568309      140362.68    
     20500   304.72469      0.01025       -0.006321963   -0.0098930348   7.5730591     -119951.4       639.00382      37.493593      36.350807      380.36215      518404.08      34.398521      139680.18    
     20600   298.24957      0.0103         0.0060717186  -0.00075575487  7.663295      -119944.16      625.42557      37.441121      36.26149       380.38098      516432.16      34.371659      139578.01    
     20700   298.78285      0.01035       -9.9464798e-05  0.0082194387   7.6808799     -119953.09      626.54386      37.375933      36.227513      380.39981      515075.44      34.492197      140074.43    
     20800   297.61901      0.0104         0.0012250097  -0.0033357586   7.7334275     -119956.24      624.10329      37.330076      36.100675      380.41863      512667.72      34.350748      139506.9     
     20900   298.73933      0.01045       -7.9406716e-05  0.00063279316  7.8656805     -119962.84      626.45258      37.235901      36.022964      380.43746      510298.84      34.15717       138727.6     
     21000   299.55059      0.0105         0.0026150127  -0.0036832993   7.9185179     -119968.01      628.15379      37.144278      35.868977      380.45628      506892.27      34.118946      138579.21    
     21100   303.01834      0.01055        0.0021909835   0.0089612961   7.9563073     -119981.55      635.42562      37.045182      35.763237      380.47511      504074.58      33.963544      137954.85    
     21200   300.2456       0.0106        -0.0063563221  -0.011959425    8.0995884     -119980.33      629.61122      36.960444      35.594042      380.49394      500567.01      33.850954      137504.33    
     21300   300.35432      0.01065       -5.0310574e-05  0.0072808982   8.1664722     -119982.97      629.83921      36.80218       35.419659      380.51276      496006.25      33.779241      137219.81    
     21400   299.58824      0.0107         0.0048573965   0.003458689    8.2659387     -119987.71      628.23275      36.669248      35.244141      380.53159      491789.95      33.616121      136563.94    
     21500   301.07035      0.01075       -0.0011704348   0.0017037411   8.3945647     -119997.88      631.34071      36.539633      35.055257      380.55041      487449.39      33.516493      136165.94    
     21600   302.84136      0.0108        -0.0024649404  -0.0099040321   8.385651      -120007.93      635.0545       36.384392      34.845081      380.56924      482492.18      33.484322      136041.97    
     21700   300.75211      0.01085        0.0028965403   0.013185668    8.5070013     -120009.35      630.67336      36.210672      34.632887      380.58807      477287.92      33.303699      135314.82    
     21800   299.55791      0.0109         0.010488337   -0.0017747988   8.6100937     -120012.42      628.16913      36.046912      34.433254      380.60689      472414.03      33.114283      134551.87    
     21900   301.53655      0.01095       -0.0066052721   0.0089542851   8.6801456     -120020.9       632.31833      35.870054      34.189335      380.62572      466789.21      33.010282      134135.92    
     22000   299.28115      0.011          0.0042494714  -7.1129394e-05  8.8117765     -120022.82      627.58879      35.663232      33.974486      380.64454      461204.14      32.913757      133750.31    
     22100   301.41892      0.01105        0.00055692376 -0.0014983781   8.9181214     -120032.79      632.07166      35.461784      33.702784      380.66337      454953.96      32.80444       133312.67    
     22200   300.92543      0.0111         0.004919907    0.0032334964   9.0411605     -120037.8       631.03682      35.226362      33.452924      380.6822       448605.34      32.586209      132432.36    
     22300   300.09608      0.01115        0.0049119338   0.0068360555   9.2029823     -120042.37      629.29769      35.006485      33.174567      380.70102      442117.61      32.205912      130893.28    
     22400   298.48041      0.0112         0.0024166495   0.0041806187   9.3635569     -120041.02      625.90963      34.766854      32.911019      380.71985      435624.44      32.028978      130180.62    
     22500   298.24037      0.01125        0.002124324    0.0021949755   9.4898633     -120038.1       625.40627      34.541645      32.641244      380.73868      429276.11      31.747689      129043.71    
     22600   300.05453      0.0113         0.0014821045   0.0056898523   9.6771649     -120031.43      629.21056      34.322939      32.377492      380.7575       423132.26      31.418582      127712.31    
     22700   296.9554       0.01135        0.0096302098   0.0052248769   9.8590697     -120020.84      622.71171      34.10413       32.14901       380.77633      417488.5       31.059694      126259.72    
     22800   297.71158      0.0114         0.0052568512   0.0016399692   10.088542     -120013.67      624.2974       33.903335      31.913995      380.79515      412016.88      30.767722      125079.02    
     22900   299.13451      0.01145       -0.0072107779   0.0057869924   10.174145     -120005.11      627.28128      33.722178      31.738174      380.81398      407577.71      30.628465      124519.06    
     23000   291.52988      0.0115         0.0051790363  -0.0002272216   10.344852     -119976.24      611.33446      33.613947      31.563304      380.83281      404051.13      30.456701      123826.88    
     23100   298.3068       0.01155       -0.0012678386  -0.012719466    10.446433     -119976.12      625.54559      33.54815       31.499372      380.85163      402463.32      30.336008      123342.28    
     23200   297.54068      0.0116        -0.0098886929   0.0061742788   10.544576     -119960.87      623.93904      33.525373      31.494718      380.87046      402150.52      30.349106      123401.64    
     23300   306.8334       0.01165        0.0051348171   0.0030235891   10.555597     -119971.43      643.42576      33.601198      31.530785      380.88928      403541.59      30.279435      123124.43    
     23400   304.5296       0.0117        -6.3131232e-05 -0.012256746    10.532788     -119971.59      638.59471      33.707117      31.684757      380.90811      406810.56      30.396361      123606       
     23500   305.21467      0.01175       -0.0074024595   0.0023392866   10.510879     -119985.93      640.0313       33.873861      31.855244      380.92694      411043.07      30.592616      124410.21    
     23600   301.89934      0.0118        -0.0016845875   0.000448522    10.487332     -119993.98      633.07908      34.057396      32.070986      380.94576      416089.65      30.663627      124705.15    
     23700   303.69448      0.01185       -0.002582064   -0.010851514    10.461627     -120012.31      636.84348      34.276379      32.289438      380.96459      421638.28      30.870018      125550.72    
     23800   302.15366      0.0119        -0.0068755397  -0.006562541    10.363885     -120023.53      633.61239      34.496662      32.543024      380.98341      427701.78      31.180485      126819.68    
     23900   299.12315      0.01195       -0.0016753837  -0.0085214914   10.353143     -120028.53      627.25747      34.721995      32.795425      381.00224      433855.85      31.356375      127541.38    
     24000   297.88134      0.012         -0.0033403191  -0.00042177673  10.314962     -120032.13      624.6534       34.959902      33.054866      381.02107      440305.98      31.561529      128382.18    
     24100   299.12291      0.01205       -0.0065300592  -0.0078292521   10.155572     -120035.87      627.25696      35.179834      33.308         381.03989      446491.08      31.96785       130041.39    
     24200   299.68828      0.0121         0.0019903097   0.0017325905   10.116256     -120030.96      628.44252      35.394924      33.543519      381.05872      452419.7       32.344394      131579.63    
     24300   297.34456      0.01215       -0.003124366   -0.0048250333   10.060963     -120017.97      623.52777      35.596424      33.776693      381.07754      458180.77      32.470775      132100.28    
     24400   301.47142      0.0122        -0.0022642956  -0.0043092594   10.11786      -120019.33      632.18176      35.771481      34.004015      381.09637      463555.7       32.605108      132653.34    
     24500   296.07211      0.01225       -0.0051900812  -0.0022249237   10.048185     -120001.6       620.85947      35.96225       34.221109      381.1152       469026.31      32.966651      134130.89    
     24600   301.40702      0.0123         0.0012283977  -0.005078892    10.051691     -120007.75      632.04671      36.121001      34.432404      381.13402      474028.92      33.092754      134650.62    
     24700   300.91052      0.01235       -0.0024337621   0.0044592022   10.0698       -120001.91      631.00554      36.295925      34.619814      381.15285      478940.72      33.175726      134994.89    
     24800   297.81301      0.0124        -0.0014885479   0.011724898    10.014817     -119989.01      624.51011      36.439571      34.81923       381.17168      483629.78      33.373237      135805.29    
     24900   295.14029      0.01245        0.0072072107  -0.007147702    10.0197       -119978.64      618.90545      36.571174      35.022306      381.1905       488231.4       33.504374      136345.66    
     25000   300.11776      0.0125        -0.003031537   -0.0079624701   9.9978716     -119980.72      629.34313      36.72012       35.150803      381.20933      492042.78      33.676061      137051.1     
     25100   298.11597      0.01255       -0.0007729242   0.0026653519   10.031752     -119969.03      625.1454       36.807004      35.311051      381.22815      495479.94      33.790518      137523.7     
     25200   299.80937      0.0126         0.0025472566   0.0050845442   10.046204     -119965.21      628.69646      36.919992      35.443525      381.24698      498890.13      33.912727      138027.89    
     25300   298.10375      0.01265        0.00035385269 -0.0014694929   10.020005     -119954.8       625.11979      37.010935      35.580279      381.26581      502073.46      34.058529      138628.17    
     25400   299.59199      0.0127        -0.0043147699   0.005783927    10.091119     -119953.13      628.24061      37.103022      35.659613      381.28463      504469.84      34.012067      138445.89    
     25500   297.43805      0.01275        0.011091455    0.0016004167   10.079916     -119944.06      623.72381      37.17194       35.786213      381.30346      507226.24      34.085808      138752.9     
     25600   302.03547      0.0128        -0.0028550529   0.0032260087   10.133935     -119948.14      633.36454      37.267806      35.854873      381.32228      509535.21      34.089175      138773.46    
     25700   301.88269      0.01285       -0.0038569493  -0.011859283    10.19231      -119934.45      633.04418      37.306838      35.928358      381.34111      511139.5       34.034772      138558.83    
     25800   305.92899      0.0129        -0.0027455794   0.006620871    10.222726     -119940.63      641.52923      37.348261      35.965488      381.35994      512261.14      34.106552      138857.91    
     25900   296.96418      0.01295        0.0086727782  -0.0029756127   10.240307     -119928.24      622.73012      37.397886      36.035903      381.37876      513971.42      34.241979      139416.15    
     26000   296.08846      0.013         -0.0039980105  -0.0020363295   10.235342     -119930.45      620.89375      37.468375      36.034897      381.39759      514951.22      34.374336      139961.96    
     26100   297.48358      0.01305       -0.0014533937   0.0019818679   10.316416     -119930.49      623.8193       37.454984      36.073735      381.41641      515347.42      34.352353      139879.35    
     26200   300.08619      0.0131         0.0032693223   0.006955653    10.333346     -119925.97      629.27694      37.495027      36.050413      381.43524      515590.3       34.353745      139891.92    
     26300   299.93913      0.01315        0.001387199   -0.0020748981   10.457991     -119922.16      628.96855      37.479866      36.068914      381.45407      515671.76      34.345102      139863.63    
     26400   303.15691      0.0132        -0.0061175241  -0.0066641716   10.452985     -119928.59      635.7162       37.520562      36.028191      381.47289      515674.28      34.319413      139765.91    
     26500   302.29352      0.01325       -0.0011433998   0.0029172156   10.555108     -119933.41      633.90568      37.432376      36.010019      381.49172      514228.17      34.165886      139147.54    
     26600   300.52036      0.0133         0.0064384511   0.0076663445   10.58763      -119935.44      630.18738      37.467445      35.92728       381.51054      513552.64      34.212784      139345.42    
     26700   301.2491       0.01335       -0.0022604675  -0.0047961596   10.639754     -119937.26      631.71554      37.40868       35.882068      381.52937      512127.18      34.21715       139370.08    
     26800   303.69411      0.0134        -0.0012029237  -0.0029009497   10.655195     -119941.09      636.8427       37.371665      35.788997      381.5482       510318.57      34.33518       139857.73    
     26900   300.81847      0.01345        0.0025625474   0.0045728066   10.703479     -119945.84      630.81253      37.29637       35.689115      381.56702      507894.12      34.262645      139569.16    
     27000   296.49363      0.0135         0.0022888319   0.002781685    10.842342     -119939.34      621.74338      37.248487      35.588206      381.58585      505832.81      34.220162      139402.98    
     27100   303.35149      0.01355       -0.0096377467  -0.010954106    10.915836     -119948.93      636.12423      37.164391      35.481918      381.60467      503208.31      34.085668      138861.95    
     27200   301.75144      0.0136         0.0061378909   0.0086369425   10.962552     -119943.88      632.76896      37.06353       35.34592       381.6235       499943.79      34.092656      138897.26    
     27300   303.07688      0.01365        0.005979166    0.0010236962   11.05189      -119956.8       635.54838      36.965046      35.233014      381.64233      497047.13      34.020775      138611.25    
     27400   300.21998      0.0137        -0.0010521359   0.00068420026  11.129629     -119956.69      629.55749      36.84472       35.092638      381.66115      493479.64      33.947767      138320.62    
     27500   301.32156      0.01375       -0.0048733897  -0.0084588173   11.219156     -119963.87      631.86749      36.706779      34.969678      381.67998      489933.66      33.842488      137898.46    
     27600   301.68949      0.0138         0.0039988029   0.0033117729   11.345408     -119972.17      632.63904      36.565981      34.788295      381.69881      485546.89      33.575211      136816.13    
     27700   301.95009      0.01385        0.0020574438   0.013681267    11.493622     -119978.18      633.1855       36.422771      34.65165       381.71763      481769.29      33.477213      136423.52    
     27800   301.65709      0.0139        -0.0035686938  -0.0062500196   11.529998     -119983.05      632.5711       36.240098      34.48072       381.73646      477012.02      33.363379      135966.34    
     27900   301.37887      0.01395        0.0069454551  -0.00054212605  11.738601     -119985.76      631.98767      36.0569        34.258279      381.75528      471562.19      33.08533       134839.86    
     28000   305.90085      0.014          0.0019903254   0.0045233103   11.888024     -119999.57      641.4702       35.860956      34.082321      381.77411      466613.71      32.793357      133656.5     
     28100   303.50495      0.01405        0.003137933    0.0010393534   12.000812     -120000.46      636.44603      35.666359      33.860715      381.79294      461086.91      32.628158      132989.76    
     28200   301.80156      0.0141         0.0027570888   0.008747826    12.130162     -120004.12      632.87404      35.450277      33.655182      381.81176      455534.08      32.390014      132025.61    
     28300   300.18121      0.01415        0.0003696914  -2.8495999e-05  12.276863     -120007.23      629.47619      35.217879      33.42748       381.83059      449508.14      32.248321      131454.54    
     28400   298.24946      0.0142         0.0034067431   0.0062431753   12.419731     -120006.27      625.42534      35.005377      33.197882      381.84941      443748.87      32.078364      130768.18    
     28500   299.85106      0.01425        0.0065099714   0.0061146034   12.565548     -120009.65      628.78387      34.786848      32.948324      381.86824      437685.3       31.802051      129648.18    
     28600   300.05349      0.0143         0.0023153185  -0.0010947005   12.781514     -120001.6       629.20837      34.594531      32.679755      381.88707      431738.91      31.485187      128362.74    
     28700   303.88003      0.01435        0.0019974027  -0.00011434596  12.872097     -120001.87      637.23258      34.372737      32.438173      381.90589      425820.8       31.421446      128109.19    
     28800   299.44696      0.0144         0.0010573006   0.0012746292   12.990808     -119991.65      627.93648      34.17666       32.190114      381.92472      420174.7       31.374596      127924.48    
     28900   294.79032      0.01445        0.00019892644  0.0039684945   13.182341     -119977.39      618.17158      33.98947       31.994515      381.94354      415354.67      31.077338      126718.71    
     29000   294.96105      0.0145         0.0071813801   0.005097211    13.387821     -119965.04      618.52959      33.8287        31.811937      381.96237      411051.28      30.810326      125636.15    
     29100   298.36975      0.01455       -0.0034382492   0.0044787114   13.55051      -119962.72      625.67759      33.686124      31.685806      381.9812       407716.02      30.652285      124997.87    
     29200   299.65944      0.0146        -0.0010340505  -0.0049738399   13.653927     -119952.07      628.38205      33.601441      31.604886      382.00002      405672.46      30.559357      124625.05    
     29300   295.21359      0.01465       -0.0095455386   0.0020569743   13.727431     -119930.65      619.05915      33.580197      31.572455      382.01885      405019.92      30.581506      124721.53    
     29400   301.83917      0.0147         0.0028314292  -0.0049914366   13.704721     -119935.74      632.95291      33.623579      31.600347      382.03767      405921.44      30.64214       124974.97    
     29500   303.3669       0.01475        0.0070725578  -0.0063949571   13.741925     -119943.01      636.15655      33.728559      31.704019      382.0565       408544.82      30.682519      125145.82    
     29600   302.75351      0.0148        -0.0073623334  -0.0071522449   13.783419     -119953.28      634.87027      33.849153      31.874001      382.07533      412224.1       30.747613      125417.5     
     29700   303.28098      0.01485       -0.0014052246   0.00021713041  13.733609     -119965.62      635.97638      34.012437      32.050198      382.09415      416522.88      30.866621      125909.13    
     29800   302.64548      0.0149        -0.0068138516  -0.00015995505  13.712136     -119976.83      634.64373      34.188092      32.282842      382.11298      421733.81      30.998388      126452.86    
     29900   303.69853      0.01495       -0.0056593334  -0.008186765    13.560219     -119989.8       636.85198      34.388578      32.524178      382.13181      427399.22      31.365052      127954.91    
     30000   299.94164      0.015          0.0034334282  -0.00078135734  13.492841     -119994.03      628.97381      34.598075      32.772656      382.15063      433309.44      31.589809      128878.16    
     30100   299.90745      0.01505       -0.0040193072  -0.0019888326   13.470056     -120000.47      628.90212      34.791789      33.026576      382.16946      439133.23      31.661099      129175.37    
     30200   298.69793      0.0151         0.00020469497  0.0077244995   13.401895     -119999.31      626.36578      35.000435      33.26664       382.18828      444999.73      31.900924      130160.26    
     30300   298.65305      0.01515       -0.0045545962  -0.0027951407   13.346925     -119994.02      626.27166      35.215281      33.499916      382.20711      450893.15      32.13088       131104.97    
     30400   300.60604      0.0152         0.0045710395  -0.0077775461   13.355843     -119989.55      630.36707      35.408986      33.704194      382.22594      456160.41      32.305888      131825.55    
     30500   303.77679      0.01525       -0.0048822549  -0.0052915982   13.227513     -119991.26      637.01608      35.61803       33.926596      382.24476      461904         32.601992      133040.37    
     30600   298.47573      0.0153         0.0018165527   0.0015374578   13.150198     -119979.4       625.89983      35.793609      34.126575      382.26359      466940.05      32.886511      134208.03    
     30700   300.69499      0.01535       -0.0039825315  -0.002857738    13.176219     -119979.83      630.55359      35.995811      34.315396      382.28241      472199.25      32.972177      134564.25    
     30800   298.70936      0.0154         0.0032115184   0.0053086508   13.064447     -119962.62      626.38974      36.144431      34.487215      382.30124      476546.43      33.273094      135799.03    
     30900   300.25684      0.01545        0.011051195    0.014669067    13.123593     -119961.1       629.63479      36.344711      34.660651      382.32007      481620.56      33.314948      135976.54    
     31000   301.79866      0.0155        -0.011972088   -0.015747561    13.097067     -119956.18      632.86796      36.469968      34.834364      382.33889      485726.45      33.430231      136453.8     
     31100   297.1619       0.01555        0.0034598498  -0.0026919482   13.149284     -119939.67      623.14474      36.590414      34.97458       382.35772      489316.32      33.504838      136765.06    
     31200   299.03538      0.0156        -0.0014486752   0.0046305012   13.04606      -119939.05      627.0734       36.713316      35.1164        382.37654      492974.94      33.728514      137684.87    
     31300   300.94607      0.01565        0.0050059391   0.0014318467   13.099126     -119939.38      631.0801       36.832285      35.237031      382.39537      496295.8       33.86696       138256.83    
     31400   297.69945      0.0157        -0.013086704   -0.0023456356   13.091196     -119925         624.27197      36.912083      35.365257      382.4142       499205.53      33.984787      138744.68    
     31500   298.26608      0.01575        0.011846367    0.00090303148  13.089173     -119918.29      625.46019      36.976327      35.455826      382.43302      501379.72      33.984811      138751.61    
     31600   297.37146      0.0158        -0.00060251906  0.0044880795   13.141759     -119914.61      623.58418      37.056591      35.591856      382.45185      504420.66      34.096207      139213.26    
     31700   297.63482      0.01585       -0.0043206359  -0.0076822897   13.104019     -119911.73      624.13646      37.099463      35.690732      382.47067      506432.09      34.236969      139794.87    
     31800   299.47536      0.0159         0.0018063122   0.0052086961   13.151597     -119911.03      627.99603      37.106274      35.791561      382.4895       507981.04      34.226309      139758.22    
     31900   299.02443      0.01595        0.012956845    0.011168631    13.17688      -119905.85      627.05045      37.143099      35.875253      382.50833      509699.25      34.247594      139852.02    
     32000   302.87364      0.016         -0.01143371    -0.011447921    13.268449     -119905.08      635.12218      37.158676      35.951973      382.52715      511028.62      34.237667      139818.36    
     32100   301.6146       0.01605       -0.0059619768  -0.000805735    13.279036     -119900.47      632.48199      37.166669      36.004187      382.54598      511906.08      34.272071      139965.74    
     32200   302.32073      0.0161         0.012135932    0.0012003603   13.284504     -119909.23      633.96274      37.174553      36.013833      382.56481      512177.06      34.377245      140402.18    
     32300   297.5607       0.01615       -0.0044892103  -3.2061908e-05  13.335266     -119906.26      623.98101      37.165191      36.065113      382.58363      512802.4       34.403084      140514.63    
     32400   297.67469      0.0162        -0.0021463046  -0.0034663615   13.39765      -119900.43      624.22006      37.152986      36.04836       382.60246      512421.08      34.305972      140124.88    
     32500   298.2957       0.01625        0.0033241305   0.0033256142   13.461557     -119896.22      625.52229      37.085429      36.075007      382.62128      511892.6       34.274205      140002.01    
     32600   303.94135      0.0163        -0.0034419194   0.0041026298   13.52803      -119905.3       637.36117      37.059122      36.041088      382.64011      511073.68      34.23754       139859.13    
     32700   298.95598      0.01635        0.0051935117  -0.0079003651   13.569933     -119901.12      626.90691      37.004033      36.008878      382.65894      509882.97      34.232705      139846.26    
     32800   296.26084      0.0164        -0.0034425128   0.0089661813   13.690527     -119903.53      621.25522      36.933886      35.971991      382.67776      508420.1       34.075388      139210.44    
     32900   298.40356      0.01645        0.0059053568  -0.0051844445   13.767559     -119904.99      625.74848      36.891859      35.893936      382.69659      506764.54      34.044554      139091.32    
     33000   300.78489      0.0165        -0.0090388325   0.0022308208   13.780942     -119905.82      630.7421       36.810616      35.855179      382.71541      505127.4       34.082983      139255.17    
     33100   296.90727      0.01655        0.0062279177  -0.0039700522   13.840313     -119901.31      622.61078      36.75639       35.723512      382.73424      502555.83      34.035293      139067.16    
     33200   299.14595      0.0166        -0.0019082001   0.0075543143   13.914435     -119915.65      627.30526      36.668546      35.64243       382.75307      500241.46      34.029827      139051.66    
     33300   300.0825       0.01665        0.00057328549 -0.0034481518   14.018285     -119918.72      629.26921      36.579719      35.512545      382.77189      497235.58      33.919367      138607.13    
     33400   299.60457      0.0167        -0.0010259817  -0.0025207295   14.125478     -119919.43      628.26698      36.4868        35.395597      382.79072      494363.52      33.840503      138291.66    
     33500   300.44246      0.01675       -0.002921003   -0.0022819382   14.158645     -119928.28      630.02403      36.36135       35.252582      382.80954      490697.33      33.844321      138314.06    
     33600   305.15518      0.0168         0.0028528438   0.0041317203   14.290935     -119942.9       639.90654      36.24273       35.097906      382.82837      486974.51      33.651898      137534.44    
     33700   300.1758       0.01685       -0.0044617105  -0.0059008623   14.393997     -119935.9       629.46484      36.100393      34.939052      382.8472       482890.35      33.482987      136850.83    
     33800   303.7438       0.0169        -0.0083000267  -0.0070922334   14.540434     -119946.77      636.9469       35.93723       34.736485      382.86602      477944.31      33.329306      136229.41    
     33900   303.61753      0.01695        0.011534091    0.010609892    14.58632      -119953.85      636.68211      35.784767      34.528078      382.88485      473084.57      33.31624       136182.7     
[...]
    991200   300.95949      0.4956         0.0041260194  -0.0027239675   0.12752852    -119570.16      631.10823      41.17579       23.635384      563.10693      548018.82      32.938459      198013.77    
    991300   300.7299       0.49565        0.00089765148 -0.0016182185   0.066208897   -119574.52      630.62678      41.151856      23.639957      563.12575      547824.57      32.874832      197637.87    
    991400   299.23566      0.4957        -0.005414037    0.00040837177  0.046432338   -119577.91      627.49338      41.140927      23.663065      563.14458      548232.75      32.877774      197662.17    
    991500   297.84226      0.49575       -0.0024360679   8.7421885e-05  0.058950323   -119573.75      624.57144      41.142438      23.644355      563.16341      547837.72      32.752641      196916.45    
    991600   301.54615      0.4958         0.0049715285   0.00012470576  0.026317923   -119570.25      632.33847      41.13327       23.670825      563.18223      548347.12      32.899272      197804.64    
    991700   303.19375      0.49585        0.0024442979  -0.00092200345 -0.0026592827  -119571.14      635.79345      41.133384      23.653742      563.20106      547971.23      32.821613      197344.31    
    991800   297.22718      0.4959        -0.00033467759 -0.00019041727  0.032100184   -119562.04      623.28163      41.097435      23.679391      563.21988      548104.32      32.820868      197346.43    
    991900   299.45137      0.49595       -0.0031244642  -0.0024697193   0.015992191   -119570.27      627.94574      41.079613      23.702405      563.23871      548417.44      32.724123      196771.3     
    992000   297.63721      0.496         -0.0031294353  -0.0017701241  -0.013866959   -119569.5       624.14146      41.082276      23.734879      563.25754      549222.76      33.044759      198705.93    
    992100   298.33545      0.49605        0.0073744367  -0.00087343052 -0.046092988   -119567.95      625.60566      41.082511      23.750007      563.27636      549594.33      32.880259      197723.36    
    992200   299.68776      0.4961         0.0018917944   0.0017629529  -0.085482861   -119563.21      628.44143      41.072462      23.758687      563.29519      549679.09      32.909625      197906.57    
    992300   298.53746      0.49615       -0.0025784619   0.0013826907  -0.10039161    -119557.55      626.02927      41.038649      23.755945      563.31402      549181.52      32.881065      197741.43    
    992400   300.42117      0.4962        -0.0046256193  -0.002144628   -0.094571028   -119564.26      629.97939      41.05071       23.762191      563.33284      549505.73      32.930511      198045.41    
    992500   296.42916      0.49625       -0.0028309933   0.00015423207 -0.036363325   -119566.68      621.6082       41.05157       23.768775      563.35167      549687.87      32.789225      197202.3     
    992600   298.39725      0.4963         0.0072882235   0.0046214733  -0.040639566   -119571.24      625.73525      41.045965      23.766956      563.37049      549589.13      32.949412      198172.32    
    992700   298.28365      0.49635        0.0009156667  -0.00016983563  0.021841489   -119564.71      625.49704      41.052233      23.726683      563.38932      548759.97      33.174533      199532.97    
    992800   301.27022      0.4964        -0.0013081433  -0.00044950895  0.062324597   -119566.21      631.75984      41.02637       23.736893      563.40815      548668.58      32.731266      196873.45    
    992900   302.25345      0.49645       -0.0086978414   0.0028064479   0.030421789   -119569.03      633.82165      41.041847      23.714312      563.42697      548371.74      32.95305       198214.07    
    993000   301.79466      0.4965         0.0066806906  -0.0026090692   0.017588622   -119571.16      632.85958      41.064377      23.701801      563.4458       548401.62      32.689626      196636.14    
    993100   299.27392      0.49655        0.0016419346   0.00068561261 -0.053153147   -119566.5       627.57361      41.068761      23.68694       563.46462      548134.59      32.941574      198158.28    
    993200   300.0762       0.4966         0.00071219748  0.0016012811  -0.033683704   -119567.76      629.25599      41.08109       23.674885      563.48345      548038.43      32.893479      197875.59    
    993300   298.97358      0.49665       -0.0023040847  -0.00044545452 -0.018938695   -119564.62      626.94381      41.094927      23.65089       563.50228      547685.67      32.717336      196822.55    
    993400   299.61903      0.4967        -0.0018038792   0.0015778983  -0.10032387    -119566.72      628.29731      41.103823      23.665793      563.5211       548167.72      32.979807      198408.16    
    993500   300.67744      0.49675        0.00069887426 -0.0037184494  -0.13906588    -119569.81      630.51678      41.130297      23.649297      563.53993      548156.75      32.670964      196556.71    
    993600   298.24403      0.4968         0.0074690564   0.0064426047  -0.16228414    -119562.98      625.41395      41.140955      23.648337      563.55875      548294.86      32.916565      198040.92    
    993700   303.12921      0.49685       -0.0013140362  -0.0052558822  -0.15236891    -119564.57      635.65812      41.14578       23.636411      563.57758      548100.92      33.073749      198993.26    
    993800   303.92575      0.4969        -0.0066986181   0.00070510319 -0.19316836    -119563.7       637.32845      41.133863      23.639502      563.59641      548032.14      32.746074      197028.34    
    993900   301.5666       0.49695       -6.2394958e-05  0.0013873888  -0.17165836    -119567.02      632.38135      41.156269      23.650948      563.61523      548614.5       32.92368       198103.59    
    994000   300.39147      0.497          0.0033365962   0.0018636393  -0.18687144    -119569.75      629.9171       41.169653      23.652331      563.63406      548843.32      33.106614      199210.96    
    994100   299.07101      0.49705        0.0051662997   0.00029684427 -0.18647183    -119568.21      627.14811      41.156387      23.647944      563.65288      548583.04      33.01991       198695.88    
    994200   300.20301      0.4971        -0.0070915613  -0.0026094644  -0.1513273     -119569.87      629.5219       41.167925      23.64392       563.67171      548661.77      32.806387      197417.61    
    994300   300.62388      0.49715       -0.00090136127 -0.0031201142  -0.12767861    -119564.88      630.40447      41.168324      23.656323      563.69054      548973.23      33.124086      199336.07    
    994400   303.05001      0.4972         0.0013966912   0.0034680287  -0.18327058    -119562.76      635.49204      41.180659      23.666037      563.70936      549381.56      33.230072      199980.55    
    994500   301.88344      0.49725        0.0047267627  -0.004199946   -0.2251869     -119565.85      633.04574      41.168606      23.657919      563.72819      549050.71      32.930995      198187.31    
    994600   301.36988      0.4973        -4.8904884e-05  0.00094322717 -0.23485047    -119570.54      631.96883      41.154301      23.658066      563.74701      548881.65      32.931161      198194.93    
    994700   299.49025      0.49735       -0.0053889155  -0.0040644098  -0.2646375     -119568.29      628.02726      41.137485      23.663915      563.76584      548811.36      33.050948      198922.51    
    994800   298.64918      0.4974        -0.00018752336  0.0048817622  -0.12680554    -119568.78      626.26355      41.14644       23.665231      563.78467      548979.7       32.888096      197948.97    
    994900   298.91356      0.49745        0.0030142354  -0.0012040317  -0.11566315    -119565.9       626.81795      41.134112      23.672259      563.80349      548996.52      32.870384      197848.96    
    995000   301.80689      0.4975         0.0014516337   0.0046935222  -0.07393723    -119561.36      632.88523      41.103897      23.68189       563.82232      548834.78      33.066764      199037.64    
    995100   301.4979       0.49755       -0.0021400288  -0.0046137996  -0.099178908   -119560.93      632.23728      41.096871      23.693657      563.84115      549031.95      32.800544      197441.78    
    995200   300.54817      0.4976        -0.0050569881   0.0029942137  -0.081868028   -119565.68      630.24571      41.069149      23.708982      563.85997      549034.79      33.066935      199051.96    
    995300   300.52017      0.49765        0.0017570245  -0.001948678   -0.083843955   -119569.79      630.18698      41.092946      23.701954      563.8788       549208.43      33.142953      199516.22    
    995400   297.28998      0.4977         0.0032275965   0.0025474827  -0.068970284   -119563.48      623.41333      41.090848      23.696918      563.89762      549082.03      32.859878      197818.75    
    995500   297.96353      0.49775        0.0027568811  -0.0021263639  -0.038632524   -119562.7       624.82575      41.074831      23.700427      563.91645      548967.6       32.882865      197963.74    
    995600   302.7764       0.4978        -0.0025846429  -0.0015358278  -0.078918666   -119567.09      634.91829      41.080614      23.690212      563.93528      548826.58      32.958596      198426.29    
    995700   303.37522      0.49785       -0.0041005326  -0.00015304084 -0.093683122   -119559.56      636.17398      41.071211      23.695725      563.9541       548846.97      32.888121      198008.61    
    995800   302.62096      0.4979         0.0022562131   0.00038265026 -0.0031831961  -119561.2       634.59232      41.078383      23.711447      563.97293      549325.36      32.78361       197385.97    
    995900   300.05478      0.49795        0.005122529    0.001608926    0.01947786    -119565.9       629.21107      41.072654      23.722683      563.99175      549527.37      32.993944      198659       
    996000   297.76983      0.498          0.0015805764   0.00058662626 -0.022573511   -119564.67      624.41955      41.036077      23.742201      564.01058      549508.06      32.846046      197775.09    
    996100   296.18362      0.49805       -0.005293773   -0.0023452453  -0.010509758   -119561.42      621.0933       41.041141      23.73233       564.02941      549365.72      32.876748      197966.56    
    996200   300.57493      0.4981        -0.00015668967 -0.0016562853   0.03072623    -119566.34      630.30183      41.030974      23.756377      564.04823      549804.49      33.196523      199898.75    
    996300   301.53706      0.49815       -0.00076953813 -0.0013626741   0.034692536   -119562.09      632.3194       41.042551      23.764835      564.06706      550173.79      32.849895      197818.08    
    996400   302.12523      0.4982         0.0068925279   0.0010131211   0.017454801   -119565.52      633.55277      41.04209       23.779419      564.08588      550523.6       32.970847      198553.06    
    996500   299.89971      0.49825       -0.0022385749   0.0034295251  -0.020183904   -119572.31      628.8859       41.017524      23.775231      564.10471      550115.54      32.84326       197791.32    
    996600   298.15902      0.4983        -0.0034075208  -0.0002114446   0.0024079596  -119569.72      625.23568      40.998571      23.777451      564.12354      549931.02      32.900367      198141.85    
    996700   299.49445      0.49835       -0.005435437    0.0027763121   0.026101316   -119568.2       628.03608      41.002235      23.774153      564.14236      549922.26      33.018725      198861.29    
    996800   302.71335      0.4984         0.0028887078  -0.00015215167  0.082316832   -119567.53      634.78607      41.012801      23.771598      564.16119      550023.22      32.893558      198114.06    
    996900   299.44712      0.49845        0.0050196305  -0.0016462588   0.081840088   -119560.34      627.93682      41.01643       23.769123      564.18001      550032.94      32.855429      197891.02    
    997000   300.29189      0.4985        -0.00083089504 -0.0020725188   0.12700201    -119564.01      629.70828      41.000864      23.771542      564.19884      549898.52      32.98354       198669.27    
    997100   299.5525       0.49855       -0.0010227217  -0.0015582103   0.11270041    -119564.66      628.15779      41.006056      23.77842       564.21767      550145.65      32.719675      197086.52    
    997200   300.43359      0.4986        -0.0030607564  -0.0044761016   0.075547175   -119569.33      630.00544      41.007362      23.778818      564.23649      550190.73      32.891535      198128.32    
    997300   301.74921      0.49865        0.0019551166   0.00089574492  0.13133629    -119572.76      632.76427      41.018193      23.774525      564.25532      550255.04      32.770853      197407.96    
    997400   300.34339      0.4987         0.00057495535  0.0047555228   0.14537941    -119565.48      629.81628      41.020915      23.790295      564.27415      550674.95      33.152936      199716.25    
    997500   300.52612      0.49875        0.0013384081   0.0024471077   0.19077627    -119559.16      630.19947      41.033337      23.776096      564.29297      550531.32      33.129041      199578.96    
    997600   301.34402      0.4988        -0.0011241171  -6.7986996e-05  0.20554441    -119563.08      631.9146       41.022418      23.796186      564.3118       550868.25      32.801463      197612.12    
    997700   301.77401      0.49885       -0.0039019708   0.00054713365  0.16071842    -119574.28      632.81629      41.033286      23.784807      564.33062      550769.09      33.109885      199476.87    
    997800   300.47409      0.4989         0.0020097093   0.0028724696   0.20893657    -119572.27      630.09037      41.051355      23.788061      564.34945      551105.38      32.791653      197566.21    
    997900   298.44944      0.49895        0.0011819844  -0.0045197771   0.18841054    -119564.23      625.8447       41.066059      23.784455      564.36828      551237.58      32.950942      198532.53    
    998000   301.06462      0.499         -6.736902e-05   0.0027014542   0.15871745    -119564.08      631.32869      41.05803       23.769281      564.3871       550796.56      32.789875      197568.68    
    998100   302.30635      0.49905       -0.00068610643  0.0027318809   0.18651786    -119562.9       633.9326       41.064943      23.767678      564.40593      550870.53      32.905775      198273.62    
    998200   299.02106      0.4991         0.00057508295  0.00043736237  0.20358394    -119560.53      627.04337      41.066201      23.756688      564.42475      550651.05      33.091588      199399.89    
    998300   298.40345      0.49915        0.00020016057 -0.00158096     0.20409028    -119569.37      625.74826      41.062784      23.761659      564.44358      550738.81      33.090591      199400.53    
    998400   298.40507      0.4992        -0.0019373199   9.1781292e-05  0.17075227    -119569.22      625.75165      41.060435      23.740293      564.46241      550230.48      32.996294      198838.94    
    998500   300.39661      0.49925        0.0010091488  -0.0024590569   0.19330828    -119567.7       629.92789      41.070972      23.735782      564.48123      550285.45      32.86403       198048.51    
    998600   298.69687      0.4993         0.0017309392  -5.7282225e-05  0.20065431    -119558.94      626.36355      41.079241      23.722243      564.50006      550100.65      32.800297      197671.03    
    998700   300.73126      0.49935        0.0041874662  -0.0040987457   0.20861008    -119562.5       630.62964      41.079261      23.70911       564.51888      549814.71      33.033639      199083.9     
    998800   300.33851      0.4994        -0.0047534455   0.0026297786   0.24562226    -119571.38      629.80606      41.070308      23.712847      564.53771      549799.87      33.148838      199784.84    
    998900   297.50766      0.49945       -0.00016314445 -0.0032497685   0.2165499     -119569.7       623.8698       41.069103      23.716002      564.55654      549875.2       32.711914      197158.11    
    999000   298.77512      0.4995        -0.00019087868  0.0044085793   0.15639791    -119569.47      626.52764      41.079604      23.716749      564.57536      550051.46      32.933475      198500.1     
    999100   301.18456      0.49955        0.0012040444  -0.0012788719   0.1315665     -119565.51      631.5802       41.089918      23.719669      564.59419      550275.66      33.107623      199556.4     
    999200   301.3869       0.4996         0.0014911874   0.0042698913   0.12132894    -119564.45      632.00451      41.074472      23.717209      564.61301      550030.1       33.002802      198931.22    
    999300   300.53641      0.49965       -0.0022246811  -0.0057494227   0.099549333   -119565.37      630.22104      41.086428      23.70119       564.63184      549836.93      32.885163      198228.74    
    999400   302.51992      0.4997        -0.0020032762   0.00021730907  0.074203362   -119574.71      634.38043      41.083499      23.726298      564.65067      550398.5       32.918637      198437.13    
    999500   300.201        0.49975        0.0032828276  -0.0020183099   0.037732044   -119572.38      629.51769      41.102499      23.737031      564.66949      550920.53      32.935057      198542.74    
    999600   301.31765      0.4998        -0.0001701028   0.0043998744   0.0597485     -119573.27      631.8593       41.085778      23.757601      564.68832      551192         33.210393      200209.22    
    999700   297.37324      0.49985        0.002510739   -0.0045107748  -0.0029420626  -119563.1       623.58793      41.08022       23.746642      564.70715      550881.58      32.794543      197708.85    
    999800   297.8302       0.4999        -0.0063673911  -0.00010700227 -0.024123218   -119563.22      624.54616      41.062539      23.756283      564.72597      550886.41      32.983133      198852.44    
    999900   300.25728      0.49995       -0.0007919975   0.00019780953  0.050483423   -119565.09      629.63571      41.084004      23.732964      564.7448       550651.71      33.273215      200608.01    
   1000000   299.50984      0.5            0.005007274    0.0053766143   0.018972133   -119556.85      628.06833      41.105315      23.726472      564.76362      550804.97      32.967942      198774.11    
   1000100   302.85445      0.50005        0.0018313816  -0.00027855157  0.01100289    -119558.57      635.08195      41.087743      23.718431      564.78245      550401.28      33.039984      199215.11    
Loop time of 6555.4 on 368 procs for 1000000 steps with 16224 atoms

Performance: 6.590 ns/day, 3.642 hours/ns, 152.546 timesteps/s
99.8% CPU use with 368 MPI tasks x 1 OpenMP threads

MPI task timing breakdown:
Section |  min time  |  avg time  |  max time  |%varavg| %total
---------------------------------------------------------------
Pair    | 61.597     | 1425.2     | 3868       |2727.7 | 21.74
Neigh   | 5.1139     | 29.965     | 51.578     | 236.8 |  0.46
Comm    | 179.31     | 2295.4     | 4076.6     |2148.8 | 35.02
Output  | 3.0658     | 3.1047     | 3.9242     |   2.5 |  0.05
Modify  | 1630.5     | 2757       | 5766.4     |2438.2 | 42.06
Other   |            | 44.79      |            |       |  0.68

Nlocal:         44.087 ave         196 max           0 min
Histogram: 204 13 22 11 23 50 26 5 9 5
Nghost:        1474.44 ave        2911 max           0 min
Histogram: 96 15 3 13 14 22 64 64 42 35
Neighs:              0 ave           0 max           0 min
Histogram: 368 0 0 0 0 0 0 0 0 0
FullNghs:      17517.5 ave       71101 max           0 min
Histogram: 206 15 13 14 17 26 36 19 16 6

Total # of neighbors = 6446456
Ave neighs/atom = 397.34073
Neighbor list builds = 4165
Dangerous builds = 0


Total wall time: 1:51:02
