

##---------------INITIALIZATION-------------------------------

units          metal
dimension 	    3
boundary       p p p
atom_style 	atomic
newton 		on


##---------------ATOM DEFINITION------------------------------

read_data 	CNT_1_6_0.51.dat
Reading data file ...
  orthogonal box = (-4.58793 -4.5862 0.108122) to (4.58793 4.5862 55.8988)
  2 by 1 by 8 MPI processor grid
  reading atoms ...
  344 atoms
  read_data CPU = 0.027 seconds


##---------------FORCE FIELDS---------------------------------
#Set the formula(s) LAMMPS uses to compute pairwise interactions. In LAMMPS, pair potentials are defined between pairs #of atoms that are within a cutoff distance and the set of active interactions typically changes over time

pair_style 	airebo 3.0

#Specify the pairwise force field coefficients for one or more pairs of atom types. The number and meaning of the coefficients depends on the pair style.

pair_coeff     * * /ascldap/users/bcma/CH.airebo C
Reading airebo potential file /ascldap/users/bcma/CH.airebo with DATE: 2011-10-25


##---------------SETTINGS-------------------------------------

timestep 	0.0005
variable   ts equal 0.0005


##---------------COMPUTES-----stresses in 3 directions and min/max on x and z atom coordinates --------------------------

compute    1 all stress/atom NULL
compute    2 all reduce sum c_1[1] c_1[2] c_1[3]
compute    3 all property/atom x y # true atoms position
compute    4 all reduce min c_3[1] c_3[2]
compute    5 all reduce max c_3[1] c_3[2]


variable   Lx equal lx
variable   Ly equal ly
variable   Lz equal lz
variable   Vol equal vol
variable   thickn equal 3.4
#making the damp parameter timestep dependent
fix		1 all npt temp 300 300 0.05 iso 0 0 0.05 #$(100.0*dt)x 0 0 0.5 y 0 0 0.5 z 0 0 0.5
thermo 	2000
##---------------RELAXATION--------------------------------------

run            50000
Neighbor list info ...
  update every 1 steps, delay 10 steps, check yes
  max neighbors/atom: 2000, page size: 100000
  master list distance cutoff = 12.2
  ghost atom cutoff = 12.2
  binsize = 6.1, bins = 2 2 10
  1 neighbor lists, perpetual/occasional/extra = 1 0 0
  (1) pair airebo, perpetual
      attributes: full, newton on, ghost
      pair build: full/bin/ghost
      stencil: full/ghost/bin/3d
      bin: standard
Per MPI rank memory allocation (min/avg/max) = 3.854 | 3.854 | 3.854 Mbytes
   Step          Temp          E_pair         E_mol          TotEng         Press          Volume    
         0   0             -2491.9977      0             -2491.9977     -23688.382      4695.6033    
      2000   118.51416     -2477.7647      0             -2472.5102      11.714757      4865.5835    
      4000   262.41499     -2484.1902      0             -2472.5557     -2267.2602      4723.4567    
      6000   497.17009     -2494.36        0             -2472.3174      4831.5802      4499.4134    
      8000   499.0078      -2493.8557      0             -2471.7316      3049.2568      4295.3967    
     10000   314.06213     -2485.8111      0             -2471.8867      826.72736      4178.2442    
     12000   137.71433     -2477.7144      0             -2471.6087     -667.70729      4153.2591    
     14000   191.58885     -2479.9857      0             -2471.4914     -2221.5059      4190.0693    
     16000   327.06287     -2485.7209      0             -2471.2202      412.49263      4289.1126    
     18000   365.00352     -2487.2287      0             -2471.0458     -111.20878      4444.1619    
     20000   293.15015     -2484.1579      0             -2471.1607     -724.14481      4593.4375    
     22000   247.09692     -2482.1999      0             -2471.2446     -882.81476      4648.8913    
     24000   311.85014     -2484.8854      0             -2471.0591      487.84729      4572.8259    
     26000   328.71723     -2485.8295      0             -2471.2554     -225.92578      4433.5259    
     28000   293.64255     -2484.2015      0             -2471.1825     -1779.1646      4309.3724    
     30000   256.53998     -2482.0206      0             -2470.6466      5017.2345      4245.5518    
     32000   273.22291     -2483.6191      0             -2471.5054     -5524.9823      4315.3491    
     34000   334.84581     -2486.2339      0             -2471.3881     -2167.1224      4426.4057    
     36000   303.25017     -2484.1743      0             -2470.7294     -1263.266       4547.7226    
     38000   282.83026     -2482.9167      0             -2470.377       10303.424      4553.0667    
     40000   312.58156     -2484.7909      0             -2470.9323     -5255.4018      4524.5257    
     42000   325.25162     -2486.172       0             -2471.7516      2887.4654      4391.1456    
     44000   293.88284     -2484.5639      0             -2471.5342     -6781.1607      4322.7965    
     46000   286.26907     -2484.5901      0             -2471.898       3525.2382      4305.6931    
     48000   299.0427      -2485.6464      0             -2472.388      -1982.82        4389.591     
     50000   308.4454      -2485.7382      0             -2472.0629      4928.1668      4468.5904    
Loop time of 63.7035 on 16 procs for 50000 steps with 344 atoms

Performance: 33.907 ns/day, 0.708 hours/ns, 784.886 timesteps/s
99.4% CPU use with 16 MPI tasks x 1 OpenMP threads

MPI task timing breakdown:
Section |  min time  |  avg time  |  max time  |%varavg| %total
---------------------------------------------------------------
Pair    | 38.825     | 41.526     | 43.87      |  25.1 | 65.19
Neigh   | 10.475     | 10.601     | 10.84      |   3.3 | 16.64
Comm    | 6.28       | 8.8674     | 11.468     |  55.0 | 13.92
Output  | 0.00091516 | 0.00094956 | 0.0014193  |   0.0 |  0.00
Modify  | 1.9254     | 2.2527     | 2.7073     |  17.9 |  3.54
Other   |            | 0.4559     |            |       |  0.72

Nlocal:           21.5 ave          23 max          20 min
Histogram: 5 0 0 3 0 0 3 0 0 5
Nghost:        2319.06 ave        2339 max        2304 min
Histogram: 2 2 2 0 5 0 3 0 0 2
Neighs:              0 ave           0 max           0 min
Histogram: 16 0 0 0 0 0 0 0 0 0
FullNghs:      12450.1 ave       13336 max       11577 min
Histogram: 5 0 0 3 0 0 3 0 0 5

Total # of neighbors = 199202
Ave neighs/atom = 579.07558
Neighbor list builds = 623
Dangerous builds = 0


##---------------DEFORMATION--------------------------------------
unfix              1
reset_timestep     0
fix		1 all npt temp 300 300 0.05 x 0 0 0.05 y 0 0 0.05 #$(100.0*dt)
fix        2 all ave/time 1 100 100 c_2[1] c_2[2] c_2[3]
fix        3 all ave/time 1 100 100 v_Lx v_Ly v_Lz v_Vol
fix        4 all  ave/time 1 100 100 c_4[1] c_4[2]
fix        5 all ave/time 1 100 100 c_5[1] c_5[2]
variable   srate equal 1.0e9
variable   srate1 equal "v_srate / 1.0e12"
fix		6 all deform 1 z erate ${srate1} units box remap x
fix		6 all deform 1 z erate 0.001 units box remap x
run            100
Per MPI rank memory allocation (min/avg/max) = 3.856 | 3.857 | 3.857 Mbytes
   Step          Temp          E_pair         E_mol          TotEng         Press          Volume    
         0   308.4454      -2485.7382      0             -2472.0629      4928.1668      4468.5904    
       100   340.63495     -2487.8376      0             -2472.7351     -1988.5248      4044.4523    
Loop time of 0.138236 on 16 procs for 100 steps with 344 atoms

Performance: 31.251 ns/day, 0.768 hours/ns, 723.398 timesteps/s
99.5% CPU use with 16 MPI tasks x 1 OpenMP threads

MPI task timing breakdown:
Section |  min time  |  avg time  |  max time  |%varavg| %total
---------------------------------------------------------------
Pair    | 0.0911     | 0.098056   | 0.10464    |   1.4 | 70.93
Neigh   | 0          | 0          | 0          |   0.0 |  0.00
Comm    | 0.010224   | 0.016347   | 0.023617   |   3.5 | 11.83
Output  | 3.5172e-05 | 3.6906e-05 | 6.1054e-05 |   0.0 |  0.03
Modify  | 0.022273   | 0.022732   | 0.023372   |   0.3 | 16.44
Other   |            | 0.001064   |            |       |  0.77

Nlocal:           21.5 ave          23 max          20 min
Histogram: 5 0 0 3 0 0 3 0 0 5
Nghost:        2348.31 ave        2360 max        2336 min
Histogram: 4 0 1 2 1 0 1 3 2 2
Neighs:              0 ave           0 max           0 min
Histogram: 16 0 0 0 0 0 0 0 0 0
FullNghs:      12615.4 ave       13514 max       11698 min
Histogram: 5 0 0 3 0 0 3 0 0 5

Total # of neighbors = 201846
Ave neighs/atom = 586.76163
Neighbor list builds = 0
Dangerous builds = 0
##---------------THERMO-OUTPUTS--------------------------------------
variable cntdiameter equal ((f_5[1]-f_4[1])+(f_5[2]-f_4[2]))/2
#actual volume of cnt
variable   CorVol equal 3.14*v_cntdiameter*v_thickn*f_3[3]
#convertion factor of stress from barr to GPA
variable   ConvoFac equal 1/1.0e4
variable   sigmaxx equal f_2[1]*v_ConvoFac/v_CorVol
variable   sigmayy equal f_2[2]*v_ConvoFac/v_CorVol
variable   sigmazz equal f_2[3]*v_ConvoFac/v_CorVol
variable   StrainPerTs equal v_srate1*v_ts
variable   strain equal v_StrainPerTs*step
thermo 	100
thermo_style custom step temp v_strain v_sigmaxx v_sigmayy v_sigmazz pe ke lx ly lz vol v_cntdiameter v_CorVol
thermo_modify lost warn


##---------------DEFORMATION--------------------------------------
dump           1 all atom 5000 /ascldap/users/bcma/3rdCNTRun/CNT_1_6_0.51/CNT_1_6_0.51.lammpstrj
run            1000000
Per MPI rank memory allocation (min/avg/max) = 4.856 | 4.857 | 4.857 Mbytes
   Step          Temp         v_strain      v_sigmaxx      v_sigmayy      v_sigmazz        PotEng         KinEng           Lx             Ly             Lz           Volume     v_cntdiameter     v_CorVol   
       100   340.63495      5e-05          0.080500425    0.11529603     1.4662561     -2487.8375      15.102469      8.5800443      8.5893531      54.879448      4044.4523      5.4726339      3206.2969    
       200   304.14044      0.0001         0.045139872    0.006172254    1.6542998     -2488.3722      13.484441      8.0233092      8.040716       54.882192      3540.6231      5.4125022      3171.2256    
       300   308.39641      0.00015       -0.056328553   -0.038901544    1.9535986     -2488.041       13.673134      8.0152229      8.0200711      54.884936      3528.1495      5.482398       3212.3386    
       400   320.42023      0.0002        -0.035766458   -0.021775814    1.8272965     -2488.2777      14.206225      8.5345777      8.566452       54.88768       4012.8959      5.4325653      3183.299     
       500   267.16272      0.00025        0.022370261   -0.021486661    1.6532904     -2486.426       11.844988      8.9185159      8.9466199      54.890424      4379.7383      5.4457621      3191.1914    
       600   276.18462      0.0003        -0.013337592    0.026460368    1.6223522     -2485.4034      12.244985      9.0335715      9.0600704      54.893168      4492.72        5.4358013      3185.5136    
       700   309.99036      0.00035        0.034072433   -0.0040566424   1.6572764     -2485.6811      13.743804      8.8855641      8.9022742      54.895912      4342.3615      5.4588017      3199.1524    
       800   344.49656      0.0004        -0.010379074    0.023993884    1.6743607     -2487.1206      15.273679      8.4788753      8.478986       54.898656      3946.7887      5.4553097      3197.2656    
       900   287.16224      0.00045        0.0083985049  -0.0036769225   2.0280083     -2486.6646      12.731691      7.9684544      8.0033678      54.9014        3501.3077      5.4519251      3195.4417    
      1000   317.13007      0.0005        -0.036349735   -0.050527333    2.2629768     -2487.9894      14.060352      8.096456       8.0921155      54.904144      3597.1799      5.445185       3191.6508    
      1100   286.7455       0.00055       -0.035714719    0.010057877    2.0572783     -2487.1967      12.713214      8.5771914      8.5580936      54.906888      4030.4075      5.4883203      3217.095     
      1200   263.32272      0.0006         0.012669632   -0.031966837    2.0813192     -2486.4586      11.674737      8.8879038      8.8130414      54.909632      4301.042       5.4598918      3200.5909    
      1300   285.59365      0.00065        0.0043885693   0.038406785    2.043405      -2485.9199      12.662146      8.8401277      8.9216585      54.912376      4330.8622      5.4565395      3198.7857    
      1400   311.98667      0.0007         0.013595112   -0.017458442    2.1273564     -2486.1352      13.832313      8.6201877      8.6510982      54.91512       4095.2451      5.5166759      3234.201     
      1500   336.38621      0.00075       -0.036134724    0.018252728    2.246801      -2488.014       14.914096      8.1853872      8.1479168      54.917864      3662.6839      5.4527589      3196.8888    
      1600   279.72399      0.0008         5.2735745e-05 -0.055612241    2.5746683     -2486.5873      12.401907      7.9504922      7.9744508      54.920607      3482.0109      5.4644809      3203.9214    
      1700   321.61052      0.00085       -0.015151096   -0.0046497698   2.6396558     -2488.1255      14.258998      8.4166302      8.3033324      54.923351      3838.3776      5.4242204      3180.4749    
      1800   280.96924      0.0009        -0.020280593   -0.0034263448   2.4616351     -2487.0929      12.457117      8.777872       8.661238       54.926095      4175.8794      5.4360885      3187.5929    
      1900   284.67973      0.00095        0.0228535      0.018172455    2.541032      -2486.4558      12.621626      8.8618861      8.7891316      54.928839      4278.313       5.4523453      3197.2852    
      2000   301.97764      0.001         -0.005894017   -0.00016215187  2.4883306     -2485.9958      13.38855       8.7252256      8.6248048      54.931583      4133.7867      5.4643254      3204.4705    
      2100   331.0342       0.00105       -0.010900814   -0.053427291    2.4848715     -2487.4372      14.676808      8.3161583      8.2203995      54.934327      3755.4284      5.4936931      3221.8537    
      2200   270.08448      0.0011        -0.030560368    0.0076441431   2.8062036     -2486.1806      11.974528      7.9146935      7.9914425      54.937071      3474.7598      5.4731248      3209.9515    
      2300   311.2905       0.00115        0.023359014   -0.0050387897   2.8707504     -2487.725       13.801447      8.2611852      8.1933657      54.939815      3718.7064      5.4939981      3222.3545    
      2400   291.93235      0.0012         0.0077598178   0.025247798    2.7217659     -2487.3956      12.94318       8.6299873      8.6325209      54.942559      4093.1407      5.4478558      3195.4506    
      2500   278.37209      0.00125       -0.021696982   -0.0014775356   2.7822046     -2486.4247      12.341969      8.7364466      8.8736141      54.945303      4259.5718      5.4706069      3208.9555    
      2600   288.37996      0.0013         0.025662365   -0.023306288    2.6930399     -2485.3021      12.78568       8.7978849      8.5990152      54.948047      4156.9926      5.4231396      3181.2709    
      2700   318.11941      0.00135        0.019454497    0.044774069    2.8560092     -2486.5788      14.104215      8.3703976      8.3146773      54.950791      3824.4188      5.4777225      3213.4503    
      2800   277.02716      0.0014         0.05176352     0.0017728441   3.0233517     -2486.3678      12.28234       7.9191914      8.0697766      54.953535      3511.8664      5.4648718      3206.0717    
      2900   299.00573      0.00145       -0.057149878   -0.0079561954   3.2076848     -2487.3566      13.256787      8.2021891      8.0838008      54.956279      3643.8685      5.4309559      3186.3334    
      3000   300.44616      0.0015         0.0090246519  -0.022936973    3.0129655     -2487.4611      13.32065       8.4820221      8.5567554      54.959023      3988.8483      5.4463634      3195.5325    
      3100   269.04906      0.00155        0.023274205    0.029811839    3.1415231     -2486.1671      11.928621      8.5774542      8.8669771      54.961767      4180.1771      5.4372296      3190.3327    
      3200   294.08696      0.0016         0.0032615171   0.048751796    2.9790672     -2485.5556      13.038707      8.6394582      8.7042498      54.964511      4133.3314      5.4653401      3206.9869    
      3300   346.92934      0.00165        0.084065901   -0.034150834    2.9577292     -2487.6773      15.381539      8.2962142      8.4608403      54.967255      3858.3134      5.4423716      3193.6686    
      3400   297.40461      0.0017        -0.060450298    0.072154686    3.3604779     -2486.9855      13.185799      7.9945545      8.083645       54.969999      3552.4439      5.4704509      3210.3063    
      3500   321.95462      0.00175       -0.009936171   -0.062983607    3.3811373     -2488.278       14.274254      8.2003672      8.0555331      54.972743      3631.4076      5.4714684      3211.0637    
      3600   284.14156      0.0018        -0.00076788028 -0.02864829     3.2321945     -2486.9271      12.597765      8.3634921      8.5848775      54.975487      3947.2155      5.4975048      3226.5049    
      3700   267.2619       0.00185       -0.021580178    0.055451101    3.291276      -2486.2003      11.849385      8.6850664      8.6375655      54.978231      4124.3476      5.4508659      3199.292     
      3800   291.05119      0.0019         0.067013796   -0.0017771803   3.3108938     -2485.5503      12.904112      8.484766       8.7405367      54.980975      4077.4665      5.4675884      3209.2672    
      3900   315.16054      0.00195       -0.052280565    0.059863265    3.2241942     -2486.2645      13.97303       8.0988731      8.6141802      54.983719      3835.9475      5.4542096      3201.5741    
      4000   281.17448      0.002         -0.04698342     0.02928514     3.4905928     -2486.0992      12.466216      8.2054819      7.9364775      54.986463      3580.8627      5.4409726      3193.9634    
      4100   302.92702      0.00205        0.024138967   -0.064120503    3.6203525     -2487.5538      13.430642      8.0881095      8.1741384      54.989207      3635.5193      5.4484123      3198.4903    
      4200   303.98794      0.0021        -0.055641063    0.041031061    3.6685241     -2487.6425      13.477679      8.3655627      8.4188674      54.991951      3873.0041      5.4235621      3184.0609    
      4300   286.40505      0.00215        0.032407971    0.019426317    3.450437      -2486.1244      12.69812       8.7977692      8.2945581      54.994695      4013.1613      5.4602142      3205.7385    
      4400   324.21743      0.0022         0.068840653   -0.047609412    3.4487433     -2486.3447      14.374578      8.3842853      8.5786097      54.997439      3955.7189      5.4181996      3181.2301    
      4500   301.35697      0.00225       -0.027535422    0.076076389    3.5643889     -2485.8096      13.361032      8.1095241      8.34571        55.000183      3722.3979      5.4698687      3211.7272    
      4600   289.43904      0.0023         0.028030473   -0.034419555    3.6931        -2486.4913      12.832636      8.1844387      7.9258755      55.002927      3567.9761      5.4301385      3188.5581    
      4700   305.03864      0.00235       -0.012440023   -0.0079865094   3.8033426     -2487.3813      13.524263      8.1105363      8.3007563      55.005671      3703.1789      5.4594023      3205.9016    
      4800   299.80959      0.0024        -0.010984691    0.05234706     3.7669849     -2487.1658      13.292427      8.4384221      8.4451353      55.008415      3920.0986      5.474553       3214.9589    
      4900   289.31745      0.00245        0.10028348    -0.073683222    3.8201407     -2486.0923      12.827245      8.7336108      8.2898024      55.011159      3982.8028      5.4569574      3204.7856    
      5000   319.91946      0.0025        -0.021288985    0.050759999    3.7968433     -2486.0105      14.184023      8.3475155      8.4152335      55.013903      3864.5227      5.4512865      3201.6149    
      5100   322.64425      0.00255        0.0067840453   0.0090943167   3.8364692     -2486.7825      14.30483       8.1060785      8.1685212      55.016647      3642.9093      5.440833       3195.6348    
      5200   281.41176      0.0026         0.024659822   -0.037282763    4.0555455     -2485.9612      12.476736      8.1555175      8.0008001      55.01939       3590.0518      5.4577048      3205.7042    
      5300   292.82113      0.00265       -0.023322295    0.067534056    4.095584      -2486.6652      12.982585      8.1854021      8.4155767      55.022134      3790.1931      5.4477296      3200.0046    
      5400   276.76295      0.0027         0.037308483   -0.022808646    3.9966462     -2486.2852      12.270626      8.4804886      8.5287103      55.024878      3979.8191      5.4329505      3191.4825    
      5500   314.05866      0.00275       -0.036096083    0.010433661    4.0514925     -2487.3072      13.924177      8.5866318      8.3780564      55.027622      3958.6478      5.4407898      3196.2469    
      5600   324.29789      0.0028         0.03638358    -0.024927558    4.084738      -2486.3022      14.378146      8.2782045      8.2464019      55.030366      3756.6701      5.4992231      3230.7353    
      5700   294.9297       0.00285       -0.0025091359   0.027429966    4.0702189     -2485.608       13.076071      8.0291978      8.0783763      55.03311       3569.6061      5.4425334      3197.5901    
      5800   307.03938      0.0029        -0.037320236    0.023905551    4.3863778     -2487.0781      13.612968      8.2008133      8.1284026      55.035854      3668.6632      5.4723049      3215.2417    
      5900   309.30946      0.00295        0.039627711   -0.088094181    4.2776819     -2487.8218      13.713615      8.3310372      8.4977029      55.038598      3896.4399      5.434039       3192.9179    
      6000   281.96532      0.003         -0.044701543    0.033080936    4.3805806     -2486.4167      12.501279      8.374492       8.653815       55.041342      3988.9179      5.4323834      3192.1042    
      6100   314.26239      0.00305        0.022620246   -0.0087378941   4.4391577     -2487.1583      13.93321       8.4591846      8.3527697      55.044086      3889.2842      5.4515935      3203.5519    
      6200   303.11991      0.0031         0.05141983    -0.043596801    4.4884447     -2486.6493      13.439194      8.2151518      8.1030819      55.04683       3664.36        5.4605212      3208.9581    
      6300   294.07456      0.00315       -0.075859786    0.050218935    4.709463      -2486.5032      13.038157      7.981912       8.1410061      55.049574      3577.165       5.4474968      3201.4637    
      6400   300.68459      0.0032        -0.0020677867  -0.031903237    4.8265357     -2486.7753      13.331221      8.3432736      8.1919783      55.052318      3762.7112      5.4369921      3195.4494    
      6500   290.18588      0.00325       -0.0065751122  -0.0099772827   4.6805548     -2487.2024      12.865748      8.4134609      8.5414659      55.055062      3956.4379      5.4534637      3205.2899    
      6600   269.80444      0.0033         0.0046056075   0.0032064883   4.6924417     -2487.2107      11.962112      8.3352729      8.6264392      55.057806      3958.8614      5.4294289      3191.3225    
      6700   293.10915      0.00335        0.0069791295   0.029913159    4.9065519     -2487.2365      12.995355      8.3236394      8.2488588      55.06055       3780.4864      5.4521533      3204.8392    
      6800   297.87612      0.0034         0.048806475   -0.0028806098   4.9706018     -2486.6411      13.206704      8.0897752      8.0873854      55.063294      3602.5232      5.4345977      3194.679     
      6900   312.14568      0.00345       -0.062404722   -0.057575464    4.8512751     -2486.7681      13.839362      8.0890197      8.1958642      55.066038      3650.686       5.4556959      3207.2412    
      7000   291.31332      0.0035        -0.03751364    -0.0028260532   4.9472263     -2486.0814      12.915734      8.482243       8.2669051      55.068782      3861.5275      5.471631       3216.7693    
      7100   283.21239      0.00355        0.042290754   -0.012368232    4.9762658     -2486.9296      12.55657       8.4985773      8.5087023      55.071526      3982.3247      5.4696449      3215.7618    
      7200   291.30298      0.0036        -0.0014593715   0.022892746    4.9896935     -2488.2617      12.915276      8.3132753      8.5298869      55.07427       3905.388       5.4305988      3192.9646    
      7300   296.68995      0.00365       -0.0010448529  -0.019094138    5.1619447     -2487.5879      13.154114      8.191135       8.1686418      55.077014      3685.2277      5.4389896      3198.0574    
      7400   287.6293       0.0037        -0.018489957   -0.059950213    5.2197067     -2486.2703      12.752399      8.121241       7.9923268      55.079758      3575.0956      5.4377951      3197.5144    
      7500   291.67808      0.00375       -0.05887185     0.0091728874   5.1491635     -2486.1893      12.931906      8.1571178      8.3152022      55.082502      3736.1406      5.4523823      3206.2516    
      7600   306.22775      0.0038         0.034530686   -0.02197632     5.1655574     -2486.8964      13.576984      8.5698186      8.351218       55.085246      3942.3642      5.4141071      3183.9026    
      7700   273.27127      0.00385       -0.012350375    0.047342323    5.2704203     -2485.4548      12.115818      8.5961155      8.4279765      55.08799       3991.0069      5.4369165      3197.4755    
      7800   322.8362       0.0039         0.047859492   -0.031685417    5.194566      -2486.8004      14.31334       8.2550225      8.4205541      55.090734      3829.4596      5.4422445      3200.7684    
      7900   306.83814      0.00395       -0.035460439    0.027196213    5.2689927     -2486.1167      13.604046      8.1227614      8.0570829      55.093478      3605.6346      5.4974253      3233.3831    
      8000   295.65423      0.004         -0.024177705   -0.02865552     5.4335445     -2486.8879      13.108194      8.1297566      8.0820904      55.096222      3620.1208      5.4447449      3202.558     
      8100   287.21301      0.00405        0.029086864   -0.020060059    5.5077859     -2487.3465      12.733942      8.2835114      8.4170665      55.098966      3841.6578      5.4342351      3196.5354    
      8200   286.93538      0.0041        -0.017573483    0.075067353    5.4723438     -2487.0484      12.721633      8.5868299      8.4199979      55.10171       3983.9137      5.4524194      3207.3915    
      8300   285.9931       0.00415        0.11379525    -0.092853439    5.4490334     -2486.2864      12.679856      8.5359282      8.3818364      55.104454      3942.5448      5.4584973      3211.1267    
      8400   305.02737      0.0042        -0.077334533    0.10090014     5.5747022     -2486.7212      13.523764      8.1898343      8.2653691      55.107198      3730.3166      5.4797314      3223.7788    
      8500   306.00547      0.00425        0.034765832   -0.044685041    5.6716071     -2486.8534      13.567129      8.0873859      8.0250823      55.109942      3576.742       5.4566511      3210.3603    
      8600   313.22971      0.0043        -0.0080957112  -0.028805417    5.6401229     -2487.1275      13.887424      8.1906959      8.2194969      55.112686      3710.3733      5.4629709      3214.2386    
      8700   306.21308      0.00435       -0.022739117    0.047181063    5.6620921     -2487.1005      13.576334      8.3649858      8.5139558      55.11543       3925.2724      5.4630072      3214.42      
      8800   304.38618      0.0044         0.0604405     -0.013082834    5.6660098     -2487.323       13.495336      8.5652795      8.4680438      55.118173      3997.7852      5.489853       3230.3768    
      8900   323.83436      0.00445       -0.050608957    0.061483456    5.7058096     -2487.4484      14.357595      8.4143917      8.3341587      55.120917      3865.4578      5.4138643      3185.8216    
      9000   311.04296      0.0045         0.072816543   -0.091572931    5.8510034     -2486.2386      13.790472      8.1096202      8.1429575      55.123661      3640.1623      5.4282783      3194.4626    
      9100   305.31387      0.00455       -0.069968704    0.041507685    5.9125144     -2486.0394      13.536466      8.0924227      8.0878836      55.126405      3608.0548      5.4307048      3196.0497    
      9200   291.69702      0.0046         0.009867577   -0.017302829    6.0025466     -2486.7727      12.932746      8.3267094      8.3080813      55.129149      3813.7782      5.4481472      3206.4744    
      9300   284.13047      0.00465        0.051610344    0.0067287089   5.9500308     -2487.0821      12.597274      8.380934       8.5901281      55.131893      3969.1267      5.4325632      3197.4617    
      9400   297.2665       0.0047        -0.045460219    0.10345855     5.9897708     -2486.8957      13.179676      8.4371553      8.4942859      55.134637      3951.3676      5.4493956      3207.5284    
      9500   316.46167      0.00475        0.072272289   -0.067514999    6.0362561     -2486.8326      14.030717      8.3554235      8.1466782      55.137381      3753.1435      5.4558739      3211.5013    
      9600   292.8042       0.0048        -0.014633026    0.0060496874   6.0816348     -2485.9688      12.981834      7.9873137      8.1401214      55.140125      3585.0843      5.4452583      3205.4122    
      9700   314.38078      0.00485       -0.035789515    0.003146798    6.1465383     -2486.978       13.938459      8.2032932      8.1585258      55.142869      3690.5346      5.4880699      3230.7745    
      9800   272.53699      0.0049         0.078647429   -0.02514747     6.3292489     -2485.8801      12.083263      8.4487786      8.362228       55.145613      3896.0714      5.4314452      3197.5992    
      9900   287.24046      0.00495       -0.01949117     0.1141642      6.3844238     -2487.7835      12.735159      8.3813469      8.6129786      55.148357      3981.0696      5.4834772      3228.3921    
     10000   280.15215      0.005          0.014283432   -0.04360185     6.391215      -2486.8234      12.42089       8.3496353      8.4115678      55.151101      3873.4561      5.4597358      3214.5743    
     10100   290.37511      0.00505        0.0077980718   0.038100817    6.5194662     -2486.7552      12.874138      8.1810983      8.0831042      55.153845      3647.2504      5.4603877      3215.1181    
     10200   294.67732      0.0051        -0.018805194   -0.0035172023   6.6434924     -2486.3273      13.064881      8.0151171      8.1399962      55.156589      3598.5826      5.4406111      3203.6329    
     10300   295.27423      0.00515        0.039289481   -0.0080547552   6.4695225     -2485.6934      13.091346      8.3153874      8.256627       55.159333      3787.0772      5.4580896      3214.0847    
     10400   293.54168      0.0052         0.029076965    0.051428076    6.5687419     -2485.9165      13.014531      8.5763518      8.3745228      55.162077      3961.8978      5.4357187      3201.0705    
     10500   287.89785      0.00525        0.019287402   -0.023448298    6.6343838     -2486.8649      12.764305      8.3891153      8.5642665      55.164821      3963.4059      5.4748334      3224.2654    
     10600   310.64145      0.0053        -0.013672209    0.027404159    6.6861876     -2488.7445      13.772671      8.283536       8.2646742      55.167565      3776.8116      5.4088988      3185.5933    
     10700   275.08841      0.00535       -0.0016716853   0.0088074676   6.9226155     -2486.7075      12.196383      8.0901095      8.046363       55.170309      3591.3641      5.4323567      3199.568     
     10800   299.12066      0.0054         0.018895794   -0.027186642    6.8122356     -2486.1155      13.261882      8.1048398      8.2039832      55.173053      3668.565       5.4442323      3206.7221    
     10900   313.33049      0.00545       -0.052010465    0.055238451    6.7565615     -2486.693       13.891893      8.4532911      8.3210301      55.175797      3881.0705      5.4213229      3193.3869    
     11000   294.09248      0.0055         0.070572036   -0.038074177    6.9313274     -2486.1797      13.038952      8.5843642      8.4117779      55.178541      3984.4294      5.4514191      3211.2746    
     11100   302.35862      0.00555       -0.035767846    0.028435383    6.7606099     -2486.5537      13.405441      8.4013061      8.4062113      55.181285      3897.0764      5.4914373      3235.009     
     11200   307.02732      0.0056         0.010307009    0.039704291    6.9827266     -2486.7933      13.612434      8.1661101      8.1524154      55.184029      3673.7951      5.4345384      3201.649     
     11300   267.44442      0.00565        0.0408816     -0.039375259    7.1717913     -2485.0451      11.857477      8.0700055      8.0774745      55.186773      3597.3643      5.4446481      3207.7645    
     11400   306.9453       0.0057        -0.045341004    0.036883655    7.1157384     -2486.2186      13.608797      8.260658       8.2645616      55.189517      3767.8279      5.4613668      3217.7745    
     11500   297.12402      0.00575        0.046257423   -0.026840018    6.9936452     -2485.5948      13.173359      8.464047       8.4702284      55.192261      3956.8663      5.4779607      3227.7118    
     11600   285.6759       0.0058        -0.034530048    0.056800841    7.1201051     -2485.5204      12.665792      8.5741787      8.3778805      55.195005      3964.8473      5.4524204      3212.8228    
     11700   305.64889      0.00585        0.058701242   -0.021169786    7.1854243     -2487.2339      13.551319      8.345908       8.2713592      55.197749      3810.4111      5.4410082      3206.2576    
     11800   280.87099      0.0059         0.023739961    0.0089105105   7.2601458     -2487.0165      12.452761      8.0806819      8.1186301      55.200493      3621.3768      5.45894        3216.9843    
     11900   299.84536      0.00595       -0.034814294    0.011813288    7.5045146     -2487.3472      13.294013      8.1410849      8.1127931      55.203237      3646.0048      5.4608462      3218.2676    
     12000   312.65336      0.006          0.033149086   -0.016015549    7.3786179     -2486.4484      13.861871      8.3517494      8.3692606      55.205981      3858.7858      5.4580936      3216.8053    
     12100   308.34626      0.00605       -0.048851149    0.065393011    7.1930348     -2486.1389      13.670911      8.4665782      8.5375802      55.208725      3990.7125      5.4969717      3239.8797    
     12200   303.57818      0.0061         0.045248243   -0.00045773805  7.2632599     -2485.9412      13.459512      8.4797558      8.3814792      55.211469      3924.039       5.4689633      3223.5319    
     12300   305.23495      0.00615        0.044529857    0.00018201203  7.4550172     -2486.711       13.532967      8.2565939      8.1454809      55.214213      3713.3727      5.446222       3210.2872    
     12400   267.28083      0.0062        -0.03799366     0.039144018    7.6607361     -2486.1842      11.850224      8.0082516      8.1383356      55.216956      3598.701       5.4351986      3203.9487    
     12500   286.37794      0.00625        0.040118537   -0.060565751    7.5340668     -2486.5712      12.696918      8.2978258      8.1671304      55.2197        3742.2073      5.4445168      3209.6011    
     12600   293.04431      0.0063        -0.057570724    0.064696647    7.5430791     -2486.0235      12.99248       8.3626843      8.5013061      55.222444      3925.9701      5.451937       3214.135     
     12700   283.65243      0.00635        0.0504024     -0.015821188    7.5884084     -2485.1566      12.576079      8.4040952      8.5570341      55.225188      3971.4714      5.437434       3205.7443    
     12800   300.25702      0.0064         0.012876713    0.057543419    7.3857133     -2485.8556      13.312264      8.4222147      8.240912       55.227932      3833.1902      5.4449476      3210.3335    
     12900   282.5476       0.00645        0.061091353   -0.015780368    7.7331099     -2485.6688      12.527095      8.0990975      8.1271979      55.230676      3635.4471      5.4438979      3209.8741    
     13000   272.69856      0.0065        -0.035476422    0.005217391    7.8597995     -2485.7904      12.090426      8.0876751      8.140032       55.23342       3636.2333      5.4695841      3225.1796    
     13100   274.74136      0.00655        0.0082236212  -0.027586566    7.7313592     -2486.1572      12.180996      8.385865       8.2502266      55.236164      3821.5298      5.4923403      3238.7589    
     13200   289.9393       0.0066         0.012645307    0.035645922    7.839269      -2486.6245      12.854815      8.4175598      8.4939972      55.238908      3949.5117      5.4386187      3207.2393    
     13300   309.33541      0.00665        0.039390406    0.030117387    7.796819      -2486.2154      13.714766      8.3670482      8.4729396      55.241652      3916.2737      5.4411833      3208.9111    
     13400   310.05928      0.0067        -0.0350904      0.018366936    7.6984838     -2485.725       13.746859      8.2522408      8.2140984      55.244396      3744.7258      5.4970822      3242.0383    
     13500   274.68653      0.00675       -0.0075971213  -0.077985895    7.9682559     -2484.8806      12.178565      8.0660928      8.0891496      55.24714       3604.7561      5.4627933      3221.9756    
     13600   302.6147       0.0068        -0.034921385    0.0044927654   8.069538      -2486.8677      13.416795      8.191046       8.2101583      55.249884      3715.5428      5.4583495      3219.5145    
     13700   279.52153      0.00685        0.050027852    0.037419509    8.0082398     -2486.861       12.392931      8.4460257      8.3467135      55.252628      3895.1201      5.4360512      3206.5215    
     13800   252.12865      0.0069         0.082978685    0.034374282    8.130794      -2486.6747      11.178434      8.4904371      8.4520789      55.255372      3965.2274      5.4520017      3216.0898    
     13900   310.548        0.00695       -0.053873279    6.8734838e-05  8.1354821     -2487.6065      13.768528      8.2657265      8.3941514      55.258116      3834.0158      5.446103       3212.7698    
     14000   304.78881      0.007          0.018792119   -0.027409054    8.3067372     -2486.4777      13.513187      8.1319513      8.0669071      55.26086       3625.0956      5.4209075      3198.0652    
     14100   319.01056      0.00705       -0.030547476   -0.014998861    8.1074513     -2486.3254      14.143726      8.0944748      8.1106494      55.263604      3628.1356      5.4822882      3234.4373    
     14200   320.83768      0.0071         0.041107569    0.042973349    8.1646227     -2486.1543      14.224733      8.334248       8.3200094      55.266348      3832.2251      5.4407694      3210.1015    
     14300   294.63293      0.00715        0.01617858     0.020846628    8.2655466     -2486.0543      13.062913      8.5503668      8.4218894      55.269092      3979.9408      5.4439152      3212.117     
     14400   286.91015      0.0072         0.002451682   -0.033303228    8.221532      -2486.3109      12.720514      8.4375648      8.4278452      55.271836      3930.4073      5.427085       3202.3456    
     14500   305.27473      0.00725       -0.034699323    0.018466867    8.3765757     -2486.7211      13.534731      8.1940609      8.2140188      55.27458       3720.3203      5.4692178      3227.367     
     14600   304.58139      0.0073         0.020034642   -0.050764793    8.4746011     -2484.8142      13.50399       8.0474659      8.0447555      55.277324      3578.6482      5.4786196      3233.0754    
     14700   331.41875      0.00735       -0.023043814    0.076332803    8.3978736     -2485.7389      14.693858      8.1874664      8.2135356      55.280068      3717.4766      5.4705054      3228.4473    
     14800   307.50916      0.0074         0.015186547   -0.034183547    8.3681135     -2485.9694      13.633797      8.4298472      8.4441543      55.282812      3935.1926      5.4944417      3242.7344    
     14900   289.89157      0.00745       -0.022364245    0.0021056993   8.4617599     -2485.7195      12.852699      8.5752463      8.4081876      55.285556      3986.2146      5.4704967      3228.7626    
     15000   316.38312      0.0075         0.0020972535  -0.046689583    8.4727572     -2486.7916      14.027235      8.3168821      8.3219287      55.2883        3826.6414      5.4700699      3228.671     
     15100   297.86635      0.00755       -0.020516928    0.046902469    8.682451      -2486.1089      13.206271      8.0994792      8.0745695      55.291044      3616.0236      5.4382948      3210.0753    
     15200   291.70342      0.0076         0.034026551   -0.0082067033   8.7925036     -2486.3743      12.93303       8.0992313      8.1090122      55.293788      3631.5171      5.4479515      3215.935     
     15300   310.53148      0.00765       -0.034276827   -0.04994859     8.6741536     -2487.3562      13.767795      8.2954093      8.3620205      55.296532      3835.7204      5.4581981      3222.1435    
     15400   292.53609      0.0077        -0.022606888    0.016897934    8.7768787     -2485.9453      12.969947      8.4510749      8.4838027      55.299276      3964.8061      5.4337535      3207.8722    
     15500   284.03725      0.00775        0.036058005   -0.029563751    8.7310872     -2484.3022      12.593141      8.5124797      8.3256317      55.30202       3919.3521      5.4384691      3210.8154    
     15600   319.70181      0.0078        -0.031423489    0.059943694    8.6913079     -2485.765       14.174373      8.1909772      8.2096792      55.304764      3718.9851      5.4409224      3212.4232    
     15700   297.25225      0.00785        0.057416709   -0.041827284    8.9130287     -2485.7705      13.179044      8.0628245      8.083217       55.307508      3604.5871      5.4408139      3212.5185    
     15800   297.72076      0.0079        -0.060549684    0.0069943673   9.0167461     -2486.1386      13.199816      8.2311151      8.2033689      55.310252      3734.7072      5.4467325      3216.1727    
     15900   285.68082      0.00795        0.037232323   -0.036308168    8.9801468     -2485.7123      12.666011      8.3374199      8.4960408      55.312996      3918.0993      5.4486153      3217.4441    
     16000   299.98896      0.008         -0.027416288    0.071346433    8.9508847     -2485.9107      13.30038       8.3979922      8.5274791      55.315739      3961.3649      5.4667111      3228.2899    
     16100   316.78784      0.00805        0.0623431      0.0025733485   9.0137583     -2485.7719      14.045179      8.3719188      8.2916728      55.318483      3840.0549      5.4736629      3232.5556    
     16200   331.76856      0.0081         0.0064159987  -0.036510549    9.0616208     -2486.1077      14.709367      8.1452419      8.0924603      55.321227      3646.5013      5.4588466      3223.9655    
     16300   307.55066      0.00815       -0.086007643    0.0093170116   9.2294097     -2486.1165      13.635637      8.0720386      8.1692025      55.323971      3648.1799      5.4415544      3213.9122    
     16400   300.89422      0.0082         0.047521502   -0.049670554    9.3015097     -2486.9227      13.340515      8.3604673      8.2545268      55.326715      3818.1908      5.4451136      3216.1739    
     16500   291.25907      0.00825        0.0024593771   0.073877352    9.4140553     -2486.4936      12.913329      8.3750908      8.5038599      55.329459      3940.5972      5.4241429      3203.9464    
     16600   313.78706      0.0083         0.029421667   -0.013965808    9.4285005     -2486.2393      13.912135      8.3431367      8.4669858      55.332203      3908.7343      5.4061789      3193.4937    
     16700   325.97245      0.00835       -0.03649814    -0.045304851    9.4486795     -2486.247       14.452389      8.2687457      8.1406068      55.334947      3724.7396      5.3924101      3185.5183    
     16800   279.57131      0.0084        -0.034464328    0.0083831978   9.5207396     -2484.7186      12.395138      8.0435598      8.1005034      55.337691      3605.6315      5.4246064      3204.6969    
     16900   301.59636      0.00845        0.027434064   -0.016037175    9.5527047     -2485.9218      13.371646      8.219669       8.2153269      55.340435      3736.9884      5.4563444      3223.6066    
     17000   282.61232      0.0085         0.016595684    0.029410236    9.6618253     -2486.0715      12.529965      8.4243502      8.4025483      55.343179      3917.5228      5.437366       3212.5534    
     17100   268.86649      0.00855        0.013253715   -0.0078505621   9.6644469     -2486.4994      11.920527      8.4242257      8.4850983      55.345923      3956.1478      5.4353672      3211.5318    
     17200   276.39125      0.0086        -0.039661401   -0.019718478    9.654686      -2485.9067      12.254146      8.2731342      8.3057476      55.348667      3803.2596      5.4774534      3236.5592    
     17300   293.48237      0.00865       -0.0027682384   0.014582948    9.8455361     -2485.8539      13.011902      8.0777746      8.0946284      55.351411      3619.2397      5.4796204      3238.0001    
     17400   303.94854      0.0087         0.041418236    0.00026545882  9.7784835     -2485.6312      13.475932      8.1301912      8.1326819      55.354155      3660.031       5.4832224      3240.2893    
     17500   309.2275       0.00875        0.006521602    0.041813986    9.8255796     -2485.6265      13.709982      8.369746       8.3542798      55.356899      3870.7315      5.4567225      3224.7891    
     17600   295.48381      0.0088        -0.011819378   -0.059836773    9.8072254     -2485.8194      13.100638      8.4784734      8.4649551      55.359643      3973.1559      5.4597642      3226.7466    
     17700   288.67195      0.00885       -0.028171894   -0.0001768659   10.018639     -2486.6985      12.798626      8.3202407      8.4125898      55.362387      3875.0777      5.4310925      3209.9606    
     17800   299.01535      0.0089         0.02311259     0.052358463    10.156945     -2487.1024      13.257213      8.1872098      8.1215694      55.365131      3681.3932      5.4154007      3200.8448    
     17900   294.84083      0.00895        0.033206949   -0.0029842533   10.178709     -2485.0963      13.072131      8.0796857      8.0957833      55.367875      3621.6894      5.4141558      3200.2677    
     18000   311.00711      0.009         -0.024592038   -0.023195383    10.019358     -2485.3612      13.788883      8.2469363      8.274781       55.370619      3778.5792      5.4130274      3199.7592    
     18100   310.72314      0.00905       -0.029872905   -0.0052797281   10.009282     -2486.0824      13.776292      8.4618184      8.3889105      55.373363      3930.7024      5.4829289      3241.2401    
     18200   288.68145      0.0091         0.030094738   -0.040273239    9.9995718     -2485.6563      12.799047      8.4431454      8.3881228      55.376107      3921.8545      5.4463995      3219.8053    
     18300   304.6602       0.00915       -0.0011811831   0.097000551    10.113659     -2486.5013      13.507484      8.2379355      8.2431908      55.378851      3760.6047      5.469869       3233.8403    
     18400   287.09292      0.0092         0.041539835   -0.01718817     10.318691     -2485.4654      12.728618      8.089384       8.1041715      55.381595      3630.6931      5.4475093      3220.7806    
     18500   329.66352      0.00925       -0.060202097   -0.015133182    10.205313     -2486.0567      14.616037      8.1785811      8.1610756      55.384339      3696.6841      5.4814191      3240.9899    
     18600   319.15478      0.0093        -0.0065427447  -0.011992774    10.180894     -2485.3033      14.15012       8.374883       8.3503528      55.387083      3873.3975      5.4685757      3233.5563    
     18700   276.31105      0.00935        0.081451082   -0.0027027978   10.175982     -2484.2846      12.25059       8.4556358      8.3912401      55.389827      3930.0893      5.4381487      3215.7241    
     18800   291.45343      0.0094        -0.0033993124   0.11457002     10.270937     -2485.6119      12.921946      8.3691671      8.3368737      55.392571      3864.8886      5.4676982      3233.3577    
     18900   290.86503      0.00945        0.016283455   -0.06749877     10.450783     -2485.568       12.895859      8.1547855      8.1873925      55.395315      3698.5473      5.4160759      3202.9892    
     19000   313.05663      0.0095        -0.045436082   -0.019501727    10.572945     -2486.3038      13.879751      8.12038        8.0869039      55.398059      3637.9203      5.4368173      3215.4146    
     19100   302.33925      0.00955       -0.0059425842   0.0048876824   10.623678     -2485.5516      13.404583      8.2378633      8.2777036      55.400803      3777.8135      5.4177098      3204.2729    
     19200   293.92879      0.0096         0.081465079    0.0094207559   10.519802     -2485.3424      13.031694      8.4095629      8.4032625      55.403547      3915.2448      5.4471787      3221.8617    
     19300   290.55064      0.00965       -0.034336654    0.073277893    10.566661     -2485.7687      12.88192       8.4338901      8.3860031      55.406291      3918.7001      5.4576408      3228.2096    
     19400   292.37786      0.0097         0.035220423   -0.025471047    10.77382      -2486.1787      12.962932      8.2993495      8.202612       55.409035      3772.0445      5.4397321      3217.7759    
     19500   287.77533      0.00975       -0.04253301    -0.0091405636   10.743633     -2485.5561      12.758873      8.0388454      8.1540684      55.411779      3632.203       5.4310222      3212.7829    
     19600   310.59125      0.0098         0.030463952   -0.015870516    10.756467     -2485.3347      13.770445      8.1916502      8.1367836      55.414523      3693.5821      5.4758259      3239.4474    
     19700   316.71321      0.00985        0.050044858    0.061760302    10.768025     -2485.258       14.04187       8.3971242      8.3308805      55.417266      3876.7391      5.427357       3210.9326    
     19800   293.54642      0.0099        -0.017863819   -0.018184929    10.652677     -2484.9409      13.014742      8.3974129      8.5113342      55.42001       3961.0448      5.4770998      3240.5219    
     19900   291.07385      0.00995       -0.010510592   -0.0011254741   10.778629     -2486.353       12.905117      8.3860796      8.2828251      55.422754      3849.6884      5.5000261      3254.2474    
     20000   283.1179       0.01          -0.0032719074  -0.01548748     10.999742     -2486.4766      12.55238       8.1380973      8.1336363      55.425498      3668.7425      5.4377523      3217.5606    
     20100   271.95881      0.01005        0.014919772    0.037094844    11.037751     -2485.094       12.057628      8.058259       8.1237499      55.428242      3628.5146      5.4682777      3235.7829    
     20200   304.71749      0.0101        -0.013623048    0.0014153087   11.004754     -2485.6918      13.510025      8.3736263      8.2178797      55.430986      3814.3976      5.4167157      3205.4304    
     20300   297.47845      0.01015       -0.013327325   -0.059761092    10.959198     -2485.0255      13.189073      8.3929982      8.4943272      55.43373       3952.0299      5.433319       3215.4149    
     20400   311.20465      0.0102        -0.034296738    0.011934178    11.045676     -2485.134       13.797641      8.3931141      8.4093897      55.436474      3912.76        5.4192314      3207.2366    
     20500   320.37071      0.01025        0.05972291    -0.00077580502  11.056394     -2484.9718      14.20403       8.2549812      8.1608637      55.439218      3734.8169      5.4331839      3215.6533    
     20600   317.23587      0.0103         0.012157438    0.025723635    11.126364     -2485.3501      14.065042      8.0389798      8.1363908      55.441962      3626.3635      5.4741799      3240.0773    
     20700   306.18631      0.01035       -0.031685023   -0.012883724    11.354831     -2486.1181      13.575146      8.2259587      8.1694374      55.444706      3725.9649      5.4376069      3218.5896    
     20800   311.14031      0.0104         0.016609364   -0.026606523    11.365052     -2486.8616      13.794788      8.4232652      8.3387714      55.44745       3894.6113      5.441887       3221.2825    
     20900   285.7202       0.01045       -0.0062559417   0.05086835     11.321156     -2485.1459      12.667756      8.3544747      8.4728815      55.450194      3925.1237      5.4453692      3223.5032    
     21000   309.83027      0.0105         0.063032729    0.019455963    11.404615     -2485.061       13.736706      8.3349766      8.2733098      55.452938      3823.915       5.4308704      3215.0795    
     21100   305.89272      0.01055       -0.031958025    0.016516653    11.422219     -2485.0013      13.56213       8.1227935      8.1443591      55.455682      3668.6677      5.4559148      3230.0656    
     21200   310.65262      0.0106        -0.0060038206  -0.062187938    11.640646     -2485.6563      13.773166      8.103343       8.1467431      55.458426      3661.1353      5.4443644      3223.3869    
     21300   284.55367      0.01065       -0.045103337    0.016553689    11.520807     -2485.1379      12.616037      8.3583392      8.2475092      55.46117       3823.2423      5.4405243      3221.2727    
     21400   296.85017      0.0107         0.038275156   -0.0098144125   11.602521     -2486.4541      13.161217      8.4331516      8.4162673      55.463914      3936.5878      5.4379753      3219.9228    
     21500   264.99672      0.01075        0.0026829081   0.020327501    11.752533     -2485.442       11.748955      8.3473255      8.3959375      55.466658      3887.3043      5.4111226      3204.1813    
     21600   302.95987      0.0108         0.0046524348   0.0074180438   11.859647     -2485.8687      13.432099      8.208353       8.1730374      55.469402      3721.2855      5.3963964      3195.6194    
     21700   288.73022      0.01085       -0.0012981036  -0.023189604    11.765582     -2484.2237      12.80121       8.0530387      8.1249473      55.472146      3629.5711      5.4352597      3218.7925    
     21800   315.29096      0.0109        -0.061281519    0.041172069    11.729267     -2485.0692      13.978812      8.2616369      8.2066477      55.47489       3761.2166      5.447725       3226.3341    
     21900   300.30109      0.01095        0.075297997   -0.077151219    11.863552     -2485.2376      13.314218      8.4653964      8.3427776      55.477634      3918.1034      5.4411175      3222.5803    
     22000   281.39537      0.011         -0.025931793    0.083479327    11.861594     -2485.2376      12.47601       8.4506383      8.4231123      55.480378      3949.1308      5.4715831      3240.7843    
     22100   299.49443      0.01105        0.047451312   -0.02823475     12.037608     -2485.9073      13.278454      8.3123908      8.2729657      55.483122      3815.4702      5.4211682      3211.0827    
     22200   291.99394      0.0111        -0.020530173    0.015486649    12.139044     -2485.2483      12.94591       8.0991589      8.1206435      55.485866      3649.3266      5.4402361      3222.5364    
     22300   300.58762      0.01115       -0.011122272   -0.013662415    12.165328     -2485.2494      13.326922      8.124756       8.1644402      55.48861       3680.7861      5.4801778      3246.3565    
     22400   296.00683      0.0112         0.03560584    -0.0033949133   12.154706     -2484.666       13.123827      8.3863626      8.2818123      55.491354      3854.1121      5.4244544      3213.5059    
     22500   304.48916      0.01125        0.0028064409   0.08614989     12.125141     -2484.8732      13.499901      8.5082729      8.4207816      55.494098      3975.9472      5.4325024      3218.4327    
     22600   293.6451       0.0113         0.054925421   -0.069192234    12.084778     -2484.2745      13.019117      8.4762034      8.3484831      55.496842      3927.1475      5.4492044      3228.4873    
     22700   319.34445      0.01135       -0.043240999    0.038553881    12.273601     -2485.7126      14.158529      8.2082281      8.1859719      55.499586      3729.1462      5.4418067      3224.2638    
     22800   302.47527      0.0114         0.029362426   -0.013769566    12.476093     -2485.9912      13.410613      8.0513373      8.1138983      55.50233       3625.8413      5.4345878      3220.1459    
     22900   301.33098      0.01145       -0.039240623   -0.0013428062   12.410816     -2486.1886      13.359879      8.2481355      8.1951192      55.505074      3751.8351      5.4369988      3221.7337    
     23000   303.21953      0.0115         0.0068834498  -0.022297244    12.420801     -2485.2553      13.443611      8.3899561      8.4088862      55.507818      3916.0869      5.4733927      3243.4595    
     23100   308.70001      0.01155       -0.0058535455   0.044055809    12.318665     -2484.2419      13.686594      8.4568144      8.417684       55.510562      3951.6187      5.4644625      3238.3277    
     23200   317.25368      0.0116         0.043563154   -0.049366828    12.275847     -2484.8206      14.065832      8.3715248      8.227052       55.513306      3823.3662      5.5039538      3261.8921    
     23300   295.54502      0.01165       -0.063775812    0.033773878    12.466798     -2484.8742      13.103352      8.0976059      8.1343837      55.516049      3656.7885      5.4917083      3254.7957    
     23400   304.0438       0.0117         0.023804166   -0.035659061    12.635055     -2485.5081      13.480156      8.1197512      8.1464866      55.518793      3672.4263      5.469086       3241.5483    
     23500   323.07009      0.01175        0.025981151    0.04884582     12.71717      -2486.203       14.32371       8.3624706      8.290031       55.521537      3849.0384      5.4415347      3225.378     
     23600   307.00105      0.0118        -0.010376779   -0.0060224527   12.583776     -2485.3823      13.611269      8.394902       8.5084348      55.524281      3965.9593      5.4647658      3239.3079    
     23700   310.87329      0.01185        0.0058989541  -0.035643336    12.6901       -2483.9033      13.78295       8.4728063      8.2885776      55.527025      3899.5249      5.4229097      3214.656     
     23800   312.74454      0.0119        -0.00023082252  0.020990829    12.701669     -2483.739       13.865914      8.1980046      8.151409       55.529769      3710.7928      5.4524414      3232.3219    
     23900   306.41544      0.01195        0.017213961    0.018571579    12.902967     -2484.7427      13.585305      8.0361716      8.1360914      55.532513      3630.8838      5.4369244      3223.2824    
     24000   292.54716      0.012          0.021196981    0.019090213    13.024179     -2484.8176      12.970438      8.3062871      8.2086365      55.535257      3786.5766      5.4139405      3209.815     
     24100   288.82379      0.01205       -0.041988254   -0.065818215    12.978938     -2484.9706      12.805358      8.4090027      8.4344006      55.538001      3939.027       5.4336485      3221.6586    
     24200   299.69848      0.0121         0.013389929    0.021453619    12.955606     -2484.9008      13.287501      8.3846305      8.4350293      55.540745      3928.0972      5.4891152      3254.7061    
     24300   313.67882      0.01215        0.027446979    0.050338163    12.881837     -2483.9944      13.907336      8.334772       8.1722095      55.543489      3783.2616      5.48358        3251.5847    
     24400   319.45578      0.0122         0.035948885   -0.048780268    13.009037     -2484.5503      14.163465      8.066221       8.124469       55.546233      3640.1536      5.4689721      3243.0829    
     24500   300.50137      0.01225       -0.09089682     0.053382388    13.01453      -2484.1702      13.323098      8.1664695      8.1881903      55.548977      3714.4827      5.481824       3250.8646    
     24600   296.82811      0.0123         0.010659119   -0.064282189    13.034252     -2484.8078      13.160239      8.3866804      8.3207034      55.551721      3876.5702      5.4677628      3242.6862    
     24700   313.76428      0.01235        0.027715801    0.013196366    13.183303     -2485.8689      13.911125      8.4117071      8.4295331      55.554465      3939.1873      5.4829791      3251.8709    
     24800   296.09947      0.0124        -0.019343476    0.06064598     13.361389     -2484.7264      13.127934      8.3525068      8.3111896      55.557209      3856.7407      5.3987541      3202.0765    
     24900   301.73419      0.01245        0.051206999   -0.06897156     13.233876     -2484.4766      13.377756      8.1933167      8.0982274      55.559953      3686.4774      5.4450262      3229.6806    
     25000   339.72242      0.0125        -0.0437885      0.027405405    13.323369     -2484.5089      15.062011      8.0574949      8.1623905      55.562697      3654.2708      5.4460211      3230.4303    
     25100   318.21166      0.01255        0.0081364403  -0.029123264    13.198559     -2483.5571      14.108305      8.3125913      8.2562358      55.565441      3813.4959      5.465204       3241.9692    
     25200   312.27529      0.0126        -0.0037101562   0.030592484    13.317586     -2484.7974      13.845109      8.4136488      8.3960407      55.568185      3925.4109      5.4349055      3224.1552    
     25300   290.23192      0.01265        0.016545052    0.012825696    13.462198     -2484.5055      12.867789      8.3398782      8.3986911      55.570929      3892.4135      5.4347026      3224.1941    
     25400   303.93589      0.0127         0.022218096   -0.0072207128   13.509814     -2485.2959      13.475371      8.2781944      8.1553459      55.573673      3751.8642      5.4537749      3235.6687    
     25500   292.55708      0.01275       -0.069845484    0.024931706    13.603528     -2484.6287      12.970878      8.0821092      8.1294942      55.576417      3651.5628      5.4649757      3242.4741    
     25600   318.14367      0.0128         0.054306483   -0.089550206    13.594316     -2484.6675      14.105291      8.1685416      8.2239348      55.579161      3733.672       5.487564       3256.0369    
     25700   316.88981      0.01285       -0.049174025    0.069182012    13.591284     -2484.0227      14.0497        8.3895108      8.3435462      55.581905      3890.6372      5.4838433      3253.9899    
     25800   298.41921      0.0129         0.035889043   -0.024332685    13.541433     -2484.1134      13.230783      8.3999342      8.4095951      55.584649      3926.5021      5.4696729      3245.7417    
     25900   285.83843      0.01295       -0.01685956     0.030670151    13.782503     -2484.8267      12.672998      8.3209662      8.2572772      55.587393      3819.3277      5.4566067      3238.148     
     26000   297.02597      0.013          0.0059071658  -0.052253906    13.984249     -2485.2278      13.169011      8.1352354      8.126097       55.590137      3674.9368      5.4159738      3214.1936    
     26100   294.08379      0.01305       -0.022912642   -0.018355039    13.948969     -2484.4161      13.038566      8.1002068      8.1723832      55.592881      3680.1372      5.4271316      3220.9744    
     26200   316.65352      0.0131        -0.041286071    0.033085744    13.961808     -2484.7743      14.039223      8.3143505      8.2997222      55.595625      3836.4761      5.4453222      3231.93      
     26300   304.05278      0.01315        0.05479192    -0.035736125    13.929282     -2484.3628      13.480554      8.4513457      8.3761819      55.598369      3935.809       5.4407988      3229.4046    
     26400   295.67051      0.0132        -0.055438089    0.063217066    13.992849     -2484.1688      13.108916      8.3175752      8.3871204      55.601113      3878.7617      5.4175765      3215.7796    
     26500   291.74705      0.01325        0.067264551   -0.080876825    14.039457     -2484.0955      12.934964      8.2276112      8.1331335      55.603857      3720.8021      5.425969       3220.9202    
     26600   303.44735      0.0133        -0.050156055    0.027840716    14.10475      -2484.6543      13.453711      8.1142336      8.0865265      55.606601      3648.6808      5.4440799      3231.8305    
     26700   299.05815      0.01335       -0.018450848   -0.0095776472   13.968978     -2484.3538      13.259111      8.1582754      8.3096328      55.609345      3769.8838      5.4756098      3250.7084    
     26800   290.55233      0.0134         0.0092407723  -0.0073620084   14.001785     -2483.9625      12.881995      8.4513965      8.3239849      55.612089      3912.2713      5.4544669      3238.3163    
     26900   307.74145      0.01345        0.015647218    0.017104224    14.165371     -2484.798       13.644096      8.3925279      8.4156197      55.614832      3927.9824      5.4331556      3225.8229    
     27000   301.24572      0.0135        -0.033923749   -0.020621608    14.134706     -2484.4376      13.356099      8.2979921      8.2337647      55.617576      3799.9994      5.4630219      3243.7154    
     27100   304.66318      0.01355       -0.020397441   -0.040589535    14.315033     -2484.7101      13.507617      8.1454197      8.0580603      55.62032       3650.7111      5.4580953      3240.9501    
     27200   290.59145      0.0136         0.0046820405   0.023534723    14.302946     -2484.2374      12.883729      8.056647       8.2346126      55.623064      3690.2214      5.4569319      3240.4191    
     27300   299.34961      0.01365        0.0092137794   0.025053375    14.391396     -2484.7521      13.272033      8.390495       8.3024188      55.625808      3874.9719      5.4349278      3227.512     
     27400   292.27658      0.0137        -0.017590365   -0.016163868    14.543393     -2484.2489      12.958441      8.4177697      8.4490043      55.628552      3956.4012      5.4181915      3217.7319    
     27500   305.64409      0.01375        0.0052476232  -0.027546749    14.386839     -2483.8019      13.551106      8.3758588      8.29847        55.631296      3866.7541      5.4600603      3242.7567    
     27600   314.62881      0.0138        -0.054004989    0.021612914    14.387347     -2483.6892      13.949455      8.1795293      8.0845737      55.63404       3678.9682      5.433526       3227.157     
     27700   297.45512      0.01385        0.081669374   -0.027540935    14.579397     -2484.1774      13.188038      8.0424916      8.1611909      55.636784      3651.7932      5.431911       3226.3569    
     27800   299.84619      0.0139        -0.049732488    0.0064171535   14.747551     -2485.1663      13.29405       8.2988653      8.267101       55.639528      3817.2921      5.4203647      3219.6577    
     27900   295.07093      0.01395        0.013299298   -0.059634051    14.683679     -2484.8571      13.082332      8.3713614      8.4398989      55.642272      3931.3182      5.4245898      3222.3263    
     28000   277.62742      0.014         -0.029959529    0.068385351    14.721581     -2483.3293      12.308953      8.3571587      8.3717578      55.645016      3893.1539      5.4440538      3234.0478    
     28100   309.69267      0.01405        0.075362758    0.000776535    14.588194     -2484.176       13.730605      8.3001581      8.1365601      55.64776       3758.1568      5.4513571      3238.546     
     28200   297.36215      0.0141         0.0089558223  -0.020992925    14.701374     -2483.6704      13.183917      8.0639026      8.1383949      55.650504      3652.1881      5.4657848      3247.2773    
     28300   304.42132      0.01415       -0.031064692    0.0015600468   14.796541     -2485.0111      13.496893      8.1770593      8.2266789      55.653248      3743.7963      5.4799823      3255.8727    
     28400   296.3844       0.0142         0.0035095962  -0.0050790148   14.918546     -2485.6458      13.140567      8.3965995      8.3002972      55.655992      3878.9038      5.450904       3238.7559    
     28500   289.75522      0.01425        0.024865777    0.028277503    15.039766     -2484.7538      12.846654      8.3536641      8.4283974      55.658736      3918.8203      5.4440834      3234.8628    
     28600   305.25233      0.0143         0.026589673   -0.0045905708   14.779148     -2484.2175      13.533737      8.3165279      8.2604972      55.66148       3823.8688      5.4472571      3236.9082    
     28700   304.05192      0.01435       -0.059649704    0.032674648    14.987641     -2483.9781      13.480516      8.1675442      8.1031253      55.664224      3684.005       5.4356269      3230.1564    
     28800   302.63774      0.0144         0.024429804   -0.09380541     15.003552     -2484.1362      13.417816      8.0829856      8.1931402      55.666968      3686.5469      5.4036723      3211.3255    
     28900   275.35165      0.01445       -0.033647147    0.055914643    15.121937     -2483.7361      12.208054      8.3208594      8.2701084      55.669712      3830.8784      5.4222371      3222.5171    
     29000   272.68557      0.0145         0.033236983   -0.015223418    15.124119     -2484.7023      12.08985       8.3757276      8.4345621      55.672456      3933.0137      5.4275584      3225.8386    
     29100   280.93279      0.01455        0.0012737946  -0.0008534478   15.177192     -2484.3701      12.455501      8.3284822      8.3364373      55.6752        3865.5219      5.4372425      3231.7536    
     29200   299.96561      0.0146        -0.016367364    0.030497613    15.279385     -2484.3445      13.299344      8.1966849      8.1390594      55.677944      3714.4596      5.4301945      3227.7236    
     29300   299.84173      0.01465        0.028565292   -0.062267868    15.227465     -2484.0687      13.293852      8.0887963      8.1331153      55.680688      3663.0717      5.4075666      3214.4319    
     29400   313.94776      0.0147        -0.035853561    0.056923696    15.093386     -2484.2032      13.91926       8.2262363      8.2729765      55.683432      3789.5616      5.4627012      3247.3657    
     29500   284.11338      0.01475        0.068987345   -0.04634442     15.220448     -2483.0029      12.596516      8.4409978      8.3513894      55.686176      3925.5446      5.4511847      3240.6792    
     29600   291.11952      0.0148        -0.084350411    0.080468542    15.282617     -2483.9314      12.907142      8.3198444      8.4443753      55.68892       3912.4745      5.4384666      3233.2778    
     29700   292.69771      0.01485        0.075746652   -0.046647715    15.49118      -2484.9838      12.977113      8.2579349      8.2120486      55.691664      3776.7058      5.4055234      3213.8507    
     29800   273.5628       0.0149        -0.03721428     0.035568387    15.531053     -2484.2159      12.128743      8.1168098      8.1067604      55.694408      3664.7495      5.3944812      3207.4436    
     29900   299.27962      0.01495        0.021975521   -0.023191604    15.659319     -2483.8129      13.26893       8.1395046      8.2218406      55.697152      3727.3486      5.4039139      3213.2104    
     30000   309.79918      0.015         -0.034054783    0.0035527103   15.515299     -2483.9581      13.735328      8.3647243      8.3235047      55.699896      3878.0396      5.4184573      3222.0167    
     30100   293.08532      0.01505        0.02588699    -0.0053438065   15.47132      -2483.6104      12.994298      8.3562065      8.4142393      55.70264       3916.515       5.440149       3235.0748    
     30200   307.36071      0.0151        -0.0062106984   0.01987322     15.633887     -2484.6014      13.627215      8.2969625      8.2909392      55.705384      3831.9517      5.4262073      3226.9431    
     30300   284.46373      0.01515       -0.012532879   -0.018978617    15.608395     -2484.1917      12.612049      8.1770845      8.1080641      55.708128      3693.467       5.4564112      3245.0651    
     30400   272.72911      0.0152         0.013962345   -0.044824413    15.967748     -2484.1318      12.09178       8.0960181      8.1863083      55.710872      3692.3216      5.4280624      3228.3644    
     30500   293.42638      0.01525       -0.070184656    0.060551971    15.697982     -2484.1769      13.009419      8.2854251      8.2850519      55.713615      3824.471       5.4758014      3256.9178    
     30600   304.44816      0.0153         0.086085061   -0.048788781    15.679185     -2483.4109      13.498084      8.4320166      8.3583944      55.716359      3926.7843      5.4352499      3232.9576    
     30700   322.57236      0.01535       -0.05608442     0.0834108      15.657672     -2483.923       14.301642      8.3542952      8.3772474      55.719103      3899.557       5.4427481      3237.5771    
     30800   314.37342      0.0154         0.047892159   -0.071925822    15.704498     -2484.1817      13.938132      8.2061312      8.1914612      55.721847      3745.634       5.4712876      3254.7139    
     30900   279.81195      0.01545       -0.023414944    0.019076522    16.020123     -2483.8247      12.405807      8.1296136      8.0963548      55.724591      3667.8058      5.420658       3224.7545    
     31000   282.69376      0.0155         0.001067921    0.0085316886   16.099684     -2483.8376      12.533575      8.1795335      8.2471731      55.727335      3759.2562      5.4099369      3218.535     
     31100   290.67424      0.01555        0.054705412    0.0020274008   16.018849     -2483.7181      12.8874        8.4122929      8.3363055      55.730079      3908.208       5.4242928      3227.2347    
     31200   303.37721      0.0156        -0.08520714     0.025714818    15.929529     -2483.4937      13.450602      8.364058       8.4364724      55.732823      3932.6833      5.4362442      3234.5046    
     31300   315.94135      0.01565        0.097221806   -0.030182327    16.049298     -2483.6085      14.007648      8.2899961      8.223066       55.735567      3799.4482      5.4351953      3234.0397    
     31400   320.48019      0.0157        -0.032783133    0.074288478    15.987293     -2484.4687      14.208883      8.1228495      8.1124814      55.738311      3672.9577      5.4420356      3238.2692    
     31500   289.95715      0.01575        0.034697756   -0.038303403    16.193024     -2484.3934      12.855607      8.1318023      8.2042804      55.741055      3718.7972      5.4472037      3241.504     
     31600   291.38247      0.0158        -0.04873143    -0.0075547383   16.175555     -2484.3557      12.9188        8.3315688      8.3225012      55.743799      3865.2467      5.4765935      3259.1537    
     31700   318.97382      0.01585        0.0020118575  -0.0030600985   16.279719     -2484.4203      14.142096      8.3899332      8.3824305      55.746543      3920.5447      5.4496764      3243.2948    
     31800   319.09829      0.0159         0.058876192    0.035198297    16.301258     -2483.8115      14.147615      8.342364       8.3018352      55.749287      3861.0245      5.42987        3231.6664    
     31900   317.90745      0.01595       -0.015575046    0.01930803     16.20724      -2483.9155      14.094818      8.1891837      8.1667572      55.752031      3728.6442      5.440506       3238.156     
     32000   315.67887      0.016          0.00088677089 -0.043803489    16.374999     -2484.2049      13.996011      8.1360689      8.1096864      55.754775      3678.754       5.4584415      3248.9909    
     32100   290.25311      0.01605       -0.059015868    0.039075475    16.457344     -2483.4328      12.868729      8.2025473      8.2711476      55.757519      3782.8398      5.4573804      3248.5192    
     32200   264.37361      0.0161         0.094696277   -0.0028826869   16.689767     -2483.3443      11.721329      8.376729       8.349704       55.760263      3900.0517      5.3924387      3210.0205    
     32300   281.00959      0.01615       -0.023065856    0.043014999    16.841696     -2485.1         12.458906      8.371554       8.3733092      55.763007      3908.8535      5.4013362      3215.4752    
     32400   283.71841      0.0162        -0.001246109   -0.043781056    16.802568     -2484.1633      12.579005      8.2465614      8.2141744      55.765751      3777.4991      5.4262323      3230.4551    
     32500   284.27503      0.01625       -0.043937979   -0.021917615    16.782895     -2483.2864      12.603683      8.1138222      8.0858326      55.768495      3658.8041      5.4444379      3241.4531    
     32600   305.38917      0.0163         0.023327833    0.048018737    16.794498     -2483.4691      13.539804      8.1127591      8.2157124      55.771239      3717.2699      5.4312495      3233.7603    
     32700   309.96363      0.01635        0.021512656   -0.013184494    16.582227     -2483.4473      13.742619      8.3748414      8.341417       55.773983      3896.2614      5.4833749      3264.9563    
     32800   306.72645      0.0164        -0.037909147   -0.0043415997   16.571961     -2483.0818      13.599094      8.3723932      8.4569956      55.776727      3949.2875      5.4925091      3270.5559    
     32900   301.01978      0.01645        0.013215016   -0.031393466    16.689508     -2483.093       13.346082      8.3275733      8.2501251      55.779471      3832.2461      5.4953473      3272.407     
     33000   284.85498      0.0165        -0.012693174    0.057518122    16.851242     -2483.4122      12.629396      8.1505614      8.1023438      55.782215      3683.7822      5.4472727      3243.9388    
     33100   289.41257      0.01655        0.050102519   -0.043263794    16.987883     -2484.0118      12.831462      8.0953697      8.1849876      55.784959      3696.3393      5.455706       3249.1207    
     33200   310.88369      0.0166        -0.083540203   -0.010548971    17.002788     -2484.0792      13.783411      8.3319871      8.2613977      55.787703      3840.0828      5.4674679      3256.2857    
     33300   283.70783      0.01665        0.019109884   -0.021015396    16.918893     -2481.7976      12.578536      8.3773813      8.414959       55.790447      3932.9654      5.4417864      3241.1498    
     33400   311.13235      0.0167        -0.018157019    0.05138881     16.942241     -2482.962       13.794435      8.3188953      8.372751       55.793191      3886.1095      5.4606021      3252.5165    
     33500   298.78089      0.01675        0.052250938   -0.0059056046   16.957572     -2482.8918      13.246818      8.2439559      8.1461983      55.795935      3747.0819      5.4634058      3254.3465    
     33600   290.27509      0.0168        -0.042614879   -0.020421937    17.177503     -2482.9496      12.869703      8.0966259      8.1569468      55.798679      3685.1538      5.4420694      3241.7967    
     33700   301.23994      0.01685       -0.05437796    -0.025847657    17.191758     -2483.7121      13.355843      8.2006359      8.2454767      55.801423      3773.1891      5.4734251      3260.6354    
     33800   301.07613      0.0169         0.062080786    0.0037083775   17.341851     -2484.0576      13.348581      8.3978477      8.2930818      55.804167      3886.4275      5.435733       3238.3406    
     33900   299.98779      0.01695        0.013508851    0.05760112     17.134089     -2484.681       13.300328      8.3150938      8.4283272      55.806911      3911.0784      5.4876411      3269.4257    
     34000   303.63145      0.017          0.0036925735  -0.0048908376   17.384087     -2483.8546      13.461874      8.2846291      8.2371296      55.809655      3808.5381      5.4661482      3256.7807    
[...]
    991200   320.44964      0.4956        -0.036944735    0.039325703    5.2576579     -2432.3064      14.207529      8.1440009      8.2891242      82.074958      5540.6043      7.5440518      6610.2299    
    991300   302.21321      0.49565        0.016431061   -0.03642348     4.8841733     -2431.3981      13.398994      8.2359709      8.2193132      82.077702      5556.17        7.6495771      6702.9172    
    991400   292.66034      0.4957         0.00075526148  0.012531096    4.7654936     -2431.9569      12.975456      8.240291       8.3357943      82.080446      5638.0542      7.7246907      6768.9614    
    991500   306.35644      0.49575        0.0024739256  -0.00096014571  4.7333951     -2433.0316      13.58269       8.3079727      8.3518883      82.08319       5695.5277      7.7771668      6815.1728    
    991600   287.54364      0.4958        -0.017515079    0.0053473392   4.7869714     -2432.2363      12.748601      8.2336226      8.3642203      82.085934      5653.0804      7.8247903      6857.1348    
    991700   295.17457      0.49585        0.032379061   -0.0037288487   4.9319448     -2432.3208      13.086928      8.2105792      8.2819227      82.088678      5581.9794      7.7477979      6789.8907    
    991800   296.30809      0.4959        -0.042483614    0.0029878202   5.0774418     -2432.0458      13.137183      8.1748806      8.2603317      82.091422      5543.4059      7.7012003      6749.2798    
    991900   315.0176       0.49595        0.032394765   -0.010487618    4.7331568     -2431.7564      13.966693      8.2567812      8.2256478      82.094166      5575.6202      7.7425048      6785.7056    
    992000   305.03974      0.496         -0.0092367813  -0.0051301071   5.0181928     -2431.141       13.524312      8.2422816      8.3821586      82.09691       5671.9205      7.8080093      6843.344     
    992100   311.43307      0.49605       -0.0027003206   0.01355728     4.7267203     -2432.4697      13.807768      8.2817         8.3584315      82.099654      5683.1041      7.9289879      6949.6082    
    992200   309.49465      0.4961         0.0026346385  -0.0067018741   4.6627203     -2433.3158      13.721826      8.1692083      8.3768689      82.102398      5618.4631      8.0026582      7014.4132    
    992300   302.37325      0.49615        0.0036961947   0.011329326    4.6834228     -2432.9268      13.40609       8.1940659      8.2820385      82.105142      5571.948       7.9048426      6928.9084    
    992400   293.00954      0.4962        -0.015597892   -0.038308961    4.7521051     -2432.0773      12.990938      8.2258187      8.2268637      82.107886      5556.4615      7.8072971      6843.6346    
    992500   324.27907      0.49625        0.014019741    0.035553872    4.5880996     -2433.0968      14.377312      8.258848       8.2748856      82.11063       5611.5244      7.8771282      6905.0771    
    992600   310.6078       0.4963        -0.0021277131  -0.017049999    4.8793156     -2432.6025      13.771179      8.2965675      8.352502       82.113374      5690.2184      7.7731852      6814.1886    
    992700   284.50841      0.49635       -0.0042104401   0.0056366055   4.8928274     -2432.162       12.61403       8.2684148      8.3110469      82.116118      5642.9526      7.7903172      6829.4352    
    992800   261.12485      0.4964         0.025640472    0.0059968544   4.946778      -2433.2255      11.577291      8.1919312      8.3391627      82.118862      5609.8554      7.8272965      6862.0826    
    992900   280.38339      0.49645       -0.051197812   -0.01155627     5.1160233     -2433.8917      12.431142      8.1878247      8.2611994      82.121606      5554.8083      7.7470239      6791.9357    
    993000   290.98125      0.4965         0.036516245    0.0050854286   5.1687757     -2432.8817      12.901011      8.2709533      8.2557189      82.12435       5607.6695      7.658873       6714.8768    
    993100   297.56492      0.49655       -0.014242103    0.0061879088   5.1564537     -2432.0264      13.192907      8.288125       8.333435       82.127094      5672.3994      7.7042103      6754.8517    
    993200   297.4145       0.4966        -0.0098893943  -0.030135728    5.0782119     -2431.4485      13.186237      8.2599243      8.3215545      82.129838      5645.2281      7.8607801      6892.3584    
    993300   292.7408       0.49665        0.01760055     0.054139471    5.0898844     -2431.2601      12.979023      8.1703254      8.3321728      82.132582      5591.3038      7.7292694      6777.2757    
    993400   284.02662      0.4967         0.00016125547 -0.039956808    5.2246645     -2431.9468      12.592669      8.209191       8.2972596      82.135326      5594.5482      7.8034099      6842.5132    
    993500   300.64315      0.49675       -0.018240298    0.025679486    5.1672241     -2433.6269      13.329384      8.2580338      8.2323613      82.13807       5584.002       7.6834721      6737.5694    
    993600   293.21926      0.4968         0.021767593   -0.013666227    5.2720118     -2433.0714      13.000237      8.2895101      8.2625308      82.140814      5626.016       7.5902244      6656.0236    
    993700   313.14344      0.49685       -0.016604907    0.014620415    5.0861365     -2432.7496      13.8836        8.2492306      8.3508286      82.143558      5658.6981      7.7735236      6816.9902    
    993800   311.43236      0.4969         0.012115259   -0.018948815    5.0340902     -2431.6259      13.807737      8.2722783      8.2369494      82.146302      5597.3125      7.6504926      6709.3223    
    993900   301.89525      0.49695        0.010452372    0.010409125    4.8835479     -2431.6515      13.384897      8.1458307      8.33208        82.149046      5575.5964      7.5497729      6621.2144    
    994000   292.48678      0.497         -0.016620038    0.00066959542  4.8407179     -2432.0602      12.967761      8.222572       8.2757188      82.15179       5590.2398      7.6326281      6694.1027    
    994100   283.44579      0.49705       -0.00049648741 -0.0044489973   4.6822354     -2432.3379      12.566918      8.2628083      8.2759581      82.154533      5617.9452      7.5579058      6628.7898    
    994200   301.84867      0.4971         0.0073516751   0.022730785    4.7402565     -2433.0212      13.382832      8.2719295      8.310917       82.157277      5648.0926      7.6085605      6673.4402    
    994300   312.22684      0.49715       -0.007225337   -0.033975234    4.9111593     -2431.9275      13.842961      8.2068331      8.330289       82.160021      5616.8939      7.4796437      6560.587     
    994400   311.58907      0.4972         0.0036905828   0.03699435     5.1204136     -2431.5251      13.814685      8.1867971      8.2947021      82.162765      5579.4304      7.5170969      6593.6583    
    994500   317.2445       0.49725        0.0089658804  -0.025568157    5.1444804     -2432.5006      14.065425      8.223093       8.2942712      82.165509      5604.0627      7.4518158      6536.615     
    994600   284.74838      0.4973        -0.021978152    0.0044327984   5.1597927     -2431.9478      12.62467       8.2708687      8.2603009      82.168253      5613.7239      7.5061859      6584.5274    
    994700   277.03967      0.49735        0.032222396    0.003370261    5.249331      -2431.675       12.282895      8.3070114      8.2684065      82.170997      5643.9763      7.5033551      6582.264     
    994800   304.4595       0.4974        -0.030388685    0.00087032099  5.4249215     -2432.5128      13.498586      8.2373075      8.3296276      82.173741      5638.2447      7.2747287      6381.9163    
    994900   304.22328      0.49745        0.023546111   -0.016997889    5.0967249     -2432.1479      13.488113      8.2482156      8.2540767      82.176485      5594.6905      7.3553255      6452.8371    
    995000   328.05814      0.4975        -0.0019321479   0.03621615     5.3482595     -2432.1557      14.544861      8.1791756      8.340343       82.179229      5606.0311      7.4257836      6514.8676    
    995100   298.19054      0.49755       -0.021358913   -0.024099959    5.4198059     -2430.3093      13.220644      8.1695061      8.318753       82.181973      5585.0954      7.4317883      6520.3534    
    995200   316.75671      0.4976         0.023627837    0.013041656    5.3240736     -2432.0279      14.043798      8.2801049      8.2366977      82.184717      5605.057       7.4872833      6569.2618    
    995300   303.66565      0.49765       -0.0044872579  -0.0095823207   5.5363505     -2432.5606      13.46339       8.2674084      8.3057176      82.187461      5643.5467      7.5079383      6587.6043    
    995400   276.37169      0.4977        -0.010840872    0.0042044698   5.7968327     -2431.4411      12.253279      8.2577682      8.2645567      82.190205      5609.218       7.4147025      6506.0147    
    995500   303.44565      0.49775        0.028534994    0.015923631    5.4274818     -2432.3349      13.453636      8.2372488      8.2719076      82.192949      5600.4435      7.3806339      6476.3374    
    995600   304.65671      0.4978        -0.029444273   -0.024534765    5.6319191     -2431.6467      13.50733       8.194445       8.3334354      82.195693      5612.9695      7.5819382      6653.1995    
    995700   328.05993      0.49785        0.010600488    0.01723506     5.1157898     -2431.5937      14.544941      8.2158796      8.2825293      82.198437      5593.4609      7.4629134      6548.973     
    995800   332.11161      0.4979         0.00092667605  0.0053129123   4.9941317     -2432.3826      14.724576      8.3430278      8.2429601      82.201181      5653.0776      7.5703989      6643.5172    
    995900   294.14035      0.49795       -0.011799333   -0.018009763    4.8940532     -2432.1919      13.041074      8.277631       8.3035738      82.203925      5650.198       7.6138255      6681.8499    
    996000   285.96781      0.498          0.010661959    0.027483184    4.9516054     -2431.9452      12.678735      8.247726       8.2670184      82.206669      5605.1879      7.6777546      6738.1787    
    996100   304.23787      0.49805        0.0040736019  -0.016964111    4.6597347     -2432.2723      13.48876       8.2077817      8.3027819      82.209413      5602.3595      7.7523966      6803.9133    
    996200   318.41361      0.4981        -0.032695234   -0.0063647688   5.0725868     -2431.9823      14.117259      8.173333       8.3082793      82.212157      5582.7261      7.7848109      6832.5899    
    996300   328.83337      0.49815        0.044207424    0.025661081    5.0468053     -2431.9511      14.579232      8.2690152      8.2725403      82.214901      5623.9729      7.7257966      6781.0204    
    996400   305.59652      0.4982        -0.023960242   -0.019173457    5.0647012     -2432.4519      13.548997      8.3145341      8.255527       82.217645      5643.4899      7.8620545      6900.8459    
    996500   287.47648      0.49825        0.0048022403   0.007858959    5.0646661     -2432.453       12.745623      8.2241989      8.3085211      82.220389      5618.1956      7.8595057      6898.8389    
    996600   308.38943      0.4983         0.0068304132   0.013554412    5.177133      -2432.9925      13.672825      8.2531776      8.2991069      82.223133      5631.7915      7.8769339      6914.3677    
    996700   297.38587      0.49835       -0.019257939   -0.034193476    4.9433978     -2431.8767      13.184968      8.2086189      8.2988527      82.225877      5601.401       7.8689217      6907.565     
    996800   314.96271      0.4984         0.017998869    0.037079524    5.0120442     -2431.8494      13.964259      8.220723       8.3150773      82.228621      5620.8153      7.9405399      6970.6661    
    996900   324.12901      0.49845       -0.0048377893  -0.014790554    4.9163383     -2431.6847      14.370658      8.3218306      8.2483645      82.231365      5644.4835      7.9877317      7012.3279    
    997000   304.87557      0.4985        -0.0065715001   0.00076656594  5.0087568     -2431.381       13.517033      8.2631793      8.2615589      82.234109      5613.8547      8.0254552      7045.68      
    997100   283.18843      0.49855        0.011287077    0.0099767867   5.1790913     -2431.7881      12.555507      8.2125866      8.3123171      82.236853      5613.9501      8.0201241      7041.2346    
    997200   280.19162      0.4986        -0.0084001239  -0.023437664    5.3207595     -2431.9478      12.42264       8.2028723      8.3162483      82.239597      5610.1487      7.9829884      7008.8654    
    997300   290.83473      0.49865        0.0052531359   0.03328866     5.2860442     -2431.7626      12.894515      8.2153013      8.3265123      82.242341      5625.7715      8.1246971      7133.5201    
    997400   316.27593      0.4987         0.014813846   -0.016645546    5.1709721     -2431.6216      14.022482      8.2575492      8.3287431      82.245085      5656.4061      8.2998796      7287.5742    
    997500   305.41522      0.49875       -0.02162613    -0.00016743899  5.0461101     -2431.0292      13.54096       8.3025206      8.244434       82.247829      5629.8296      8.2389594      7234.3256    
    997600   304.23049      0.4988         0.02545632     0.0052056322   4.8979846     -2431.5843      13.488433      8.2672406      8.2273593      82.250573      5594.4831      8.172923       7176.5809    
    997700   294.43568      0.49885       -0.024086429   -0.0026123932   4.6938312     -2431.5852      13.054168      8.2752483      8.2973463      82.253316      5647.7266      8.1202939      7130.6056    
    997800   297.12436      0.4989         0.0034239491  -0.0076744171   4.6807321     -2432.3265      13.173374      8.2080457      8.3279261      82.25606       5622.6951      8.1546445      7161.0085    
    997900   264.78026      0.49895        0.016618962    0.019756257    4.7840786     -2431.2399      11.739358      8.2580134      8.3534068      82.258804      5674.4217      8.250176       7245.1412    
    998000   303.57679      0.499         -0.018613452   -0.019185484    4.7601984     -2431.6059      13.45945       8.2782835      8.2775712      82.261548      5636.897       8.2337432      7230.9515    
    998100   322.47929      0.49905        0.011939522    0.021783393    4.8001315     -2431.5097      14.297516      8.1996182      8.235117       82.264292      5554.8811      8.1363981      7145.7004    
    998200   307.44517      0.4991        -0.0012059969  -0.011643583    4.9099849     -2431.5614      13.63096       8.2519182      8.2571025      82.267036      5605.4237      8.1794204      7183.7239    
    998300   290.43406      0.49915       -0.0077681329  -0.011647446    4.9074683     -2431.7969      12.876751      8.2555875      8.2584829      82.26978       5609.0408      8.2155324      7215.6806    
    998400   302.30088      0.4992         0.0073450609   0.023479501    4.9833632     -2432.5169      13.402881      8.2364674      8.3576403      82.272524      5663.4293      8.3562583      7339.5246    
    998500   316.26474      0.49925       -0.015540585   -0.022687846    4.7401048     -2432.9862      14.021986      8.2675461      8.3491399      82.275268      5679.2067      8.4456189      7418.2597    
    998600   306.80408      0.4993         0.014775362    0.020853468    4.7185008     -2432.3899      13.602536      8.2220854      8.2417498      82.278012      5575.5177      8.4338305      7408.1524    
    998700   313.2353       0.49935        0.0049827263  -0.0011925529   4.6200121     -2431.7318      13.887672      8.2251727      8.2483714      82.280756      5582.2786      8.2370802      7235.5712    
    998800   325.72854      0.4994        -0.015552211   -0.0094431523   4.6884389     -2431.5556      14.441576      8.2483352      8.2490206      82.2835        5598.6259      8.2302869      7229.845     
    998900   313.26237      0.49945        0.015745796    0.0049478351   4.823222      -2431.8552      13.888873      8.2275663      8.3531326      82.286244      5655.2005      8.4115493      7389.3202    
    999000   289.3172       0.4995        -0.021215289    0.0024940212   4.9351617     -2431.8357      12.827234      8.2966288      8.3037742      82.288988      5669.1626      8.4384108      7413.1645    
    999100   279.11279      0.49955        0.023747742   -0.013025837    5.1182269     -2431.5039      12.374809      8.2251311      8.2635527      82.291732      5593.2707      8.4603997      7432.7296    
    999200   292.68791      0.4996        -0.011724243    0.024591139    5.2808054     -2431.3852      12.976678      8.2556475      8.2412991      82.294476      5599.0907      8.3977453      7377.9318    
    999300   315.66845      0.49965        0.0064038506  -0.023138819    5.2203358     -2431.0394      13.995549      8.2366         8.2752294      82.29722       5609.3583      8.3079803      7299.3111    
    999400   311.44649      0.4997         0.0037561394   0.032538957    4.921153      -2430.8588      13.808363      8.256469       8.3099794      82.299964      5646.69        8.4215159      7399.3091    
    999500   316.09747      0.49975        0.0029194076  -0.035012004    4.9072993     -2431.6768      14.01457       8.2510699      8.3657862      82.302708      5681.0832      8.3853412      7367.771     
    999600   284.37347      0.4998        -0.019451648    0.026219781    4.857492      -2431.1915      12.608048      8.2644753      8.2333506      82.305452      5600.4187      8.2453483      7245.0079    
    999700   262.74457      0.49985        0.029111649   -0.0038849579   4.5232555     -2430.9213      11.649104      8.2519161      8.2498212      82.308196      5603.2812      8.294542       7288.4763    
    999800   295.25557      0.4999        -0.030468152   -0.0032033428   4.7114606     -2432.3196      13.090519      8.2073347      8.2979324      82.31094       5605.6967      8.4378459      7414.6457    
    999900   317.40853      0.49995        0.045918891    0.0025157883   4.9520931     -2431.7834      14.072697      8.3046089      8.2080777      82.313684      5610.902       8.4361258      7413.3813    
   1000000   307.26408      0.5           -0.029160512   -0.0027007286   4.6197593     -2430.7124      13.622931      8.272789       8.2913445      82.316428      5646.2932      8.4499962      7425.8177    
   1000100   313.70239      0.50005        0.01115653    -0.0080654704   5.3541806     -2431.6923      13.908381      8.1786405      8.3263791      82.319172      5605.8089      8.0353995      7061.7074    
Loop time of 1991.76 on 16 procs for 1000000 steps with 344 atoms

Performance: 21.689 ns/day, 1.107 hours/ns, 502.068 timesteps/s
99.4% CPU use with 16 MPI tasks x 1 OpenMP threads

MPI task timing breakdown:
Section |  min time  |  avg time  |  max time  |%varavg| %total
---------------------------------------------------------------
Pair    | 440.13     | 1125.7     | 1493.9     |1164.8 | 56.52
Neigh   | 8.5465     | 25.295     | 38.431     | 216.6 |  1.27
Comm    | 236.77     | 602.4      | 1267.2     |1571.0 | 30.24
Output  | 1.0465     | 1.0764     | 1.2654     |   4.8 |  0.05
Modify  | 212.5      | 227.52     | 265.43     | 113.1 | 11.42
Other   |            | 9.785      |            |       |  0.49

Nlocal:           21.5 ave          40 max           0 min
Histogram: 3 1 2 0 0 1 1 2 4 2
Nghost:        1955.25 ave        2983 max         495 min
Histogram: 2 0 2 2 0 2 2 0 1 5
Neighs:              0 ave           0 max           0 min
Histogram: 16 0 0 0 0 0 0 0 0 0
FullNghs:      13199.6 ave       25078 max           0 min
Histogram: 5 1 0 0 1 0 1 2 2 4

Total # of neighbors = 211194
Ave neighs/atom = 613.93605
Neighbor list builds = 1606
Dangerous builds = 0


Total wall time: 0:34:15
