ITEM: TIMESTEP
0
ITEM: NUMBER OF ATOMS
3216
ITEM: BOX BOUNDS pp pp pp
-50 50
-50 50
-0.346474 208.576
ITEM: ATOMS id type xu yu zu
 1 1 6.19706 1.63457 33.0015
 2 1 5.71728 2.89623 32.5684
 3 1 5.16728 3.79139 33.5212
 4 1 4.25861 4.78954 33.0881
 5 1 3.41888 5.42095 34.0409
 6 1 2.20769 6.01677 33.6078
 7 1 1.19502 6.29661 34.5606
 8 1 -0.150244 6.40725 34.1275
 9 1 6.34571 0.898575 30.6628
 10 1 6.01677 2.20769 30.2297
 11 1 5.57524 3.16103 31.1825
 12 1 4.78954 4.25861 30.7494
 13 1 4.02943 4.98389 31.7022
 14 1 2.89623 5.71728 31.2691
 15 1 1.92325 6.11364 32.2219
 16 1 0.600149 6.38085 31.7889
 17 1 -0.450401 6.39317 32.7417
 18 1 -1.7794 6.15704 32.3086
 19 1 -2.76141 5.7836 33.2614
 20 1 -3.91148 5.07698 32.8283
 21 1 -4.68839 4.36971 33.7811
 22 1 -5.4996 3.29086 33.348
 23 1 -5.96336 2.34813 34.3008
 24 1 -6.3229 1.04709 33.8677
 25 1 6.40725 0.150244 28.3241
 26 1 6.23368 1.48885 27.891
 27 1 5.90668 2.48728 28.8438
 28 1 5.25474 3.66922 28.4107
 29 1 4.58467 4.47842 29.3635
 30 1 3.54502 5.33931 28.9305
 31 1 2.62507 5.84675 29.8833
 32 1 1.3423 6.26687 29.4502
 33 1 0.300405 6.40197 30.403
 34 1 -1.04709 6.3229 29.9699
 35 1 -2.06604 6.06687 30.9227
 36 1 -3.29086 5.4996 30.4896
 37 1 -4.14516 4.88806 31.4424
 38 1 -5.07698 3.91148 31.0093
 39 1 -5.64781 3.02947 31.9621
 40 1 -6.15704 1.7794 31.529
 41 1 -6.36503 0.749568 32.4818
 42 1 -6.38085 -0.600149 32.0487
 43 1 -6.19706 -1.63457 33.0015
 44 1 -5.71728 -2.89623 32.5684
 45 1 -5.16728 -3.79139 33.5212
 46 1 -4.25861 -4.78954 33.0881
 47 1 -3.41888 -5.42095 34.0409
 48 1 -2.20769 -6.01677 33.6078
 49 1 -1.19502 -6.29661 34.5606
 50 1 0.150244 -6.40725 34.1275
 51 1 6.15704 1.7794 26.5051
 52 1 5.64781 3.02947 26.0721
 53 1 5.07698 3.91148 27.0249
 54 1 4.14516 4.88806 26.5918
 55 1 3.29086 5.4996 27.5446
 56 1 2.06604 6.06687 27.1115
 57 1 1.04709 6.3229 28.0643
 58 1 -0.300405 6.40197 27.6312
 59 1 -1.3423 6.26687 28.584
 60 1 -2.62507 5.84675 28.1509
 61 1 -3.54502 5.33931 29.1037
 62 1 -4.58467 4.47842 28.6706
 63 1 -5.25474 3.66922 29.6234
 64 1 -5.90668 2.48728 29.1903
 65 1 -6.23368 1.48885 30.1431
 66 1 -6.40725 0.150244 29.71
 67 1 -6.34571 -0.898575 30.6628
 68 1 -6.01677 -2.20769 30.2297
 69 1 -5.57524 -3.16103 31.1825
 70 1 -4.78954 -4.25861 30.7494
 71 1 -4.02943 -4.98389 31.7022
 72 1 -2.89623 -5.71728 31.2691
 73 1 -1.92325 -6.11364 32.2219
 74 1 -0.600149 -6.38085 31.7889
 75 1 0.450401 -6.39317 32.7417
 76 1 1.7794 -6.15704 32.3086
 77 1 2.76141 -5.7836 33.2614
 78 1 3.91148 -5.07698 32.8283
 79 1 4.68839 -4.36971 33.7811
 80 1 5.4996 -3.29086 33.348
 81 1 5.96336 -2.34813 34.3008
 82 1 6.3229 -1.04709 33.8677
 83 1 6.3229 1.04709 24.1665
 84 1 5.96336 2.34813 23.7334
 85 1 5.4996 3.29086 24.6862
 86 1 4.68839 4.36971 24.2531
 87 1 3.91148 5.07698 25.2059
 88 1 2.76141 5.7836 24.7728
 89 1 1.7794 6.15704 25.7256
 90 1 0.450401 6.39317 25.2925
 91 1 -0.600149 6.38085 26.2453
 92 1 -1.92325 6.11364 25.8122
 93 1 -2.89623 5.71728 26.765
 94 1 -4.02943 4.98389 26.3319
 95 1 -4.78954 4.25861 27.2847
 96 1 -5.57524 3.16103 26.8516
 97 1 -6.01677 2.20769 27.8044
 98 1 -6.34571 0.898575 27.3713
 99 1 -6.40725 -0.150244 28.3241
 100 1 -6.23368 -1.48885 27.891
 101 1 -5.90668 -2.48728 28.8438
 102 1 -5.25474 -3.66922 28.4107
 103 1 -4.58467 -4.47842 29.3635
 104 1 -3.54502 -5.33931 28.9305
 105 1 -2.62507 -5.84675 29.8833
 106 1 -1.3423 -6.26687 29.4502
 107 1 -0.300405 -6.40197 30.403
 108 1 1.04709 -6.3229 29.9699
 109 1 2.06604 -6.06687 30.9227
 110 1 3.29086 -5.4996 30.4896
 111 1 4.14516 -4.88806 31.4424
 112 1 5.07698 -3.91148 31.0093
 113 1 5.64781 -3.02947 31.9621
 114 1 6.15704 -1.7794 31.529
 115 1 6.36503 -0.749568 32.4818
 116 1 6.38085 0.600149 32.0487
 117 1 6.40197 0.300405 21.8278
 118 1 6.19706 1.63457 21.3947
 119 1 5.84675 2.62507 22.3475
 120 1 5.16728 3.79139 21.9144
 121 1 4.47842 4.58467 22.8672
 122 1 3.41888 5.42095 22.4341
 123 1 2.48728 5.90668 23.3869
 124 1 1.19502 6.29661 22.9538
 125 1 0.150244 6.40725 23.9066
 126 1 -1.19502 6.29661 23.4735
 127 1 -2.20769 6.01677 24.4263
 128 1 -3.41888 5.42095 23.9932
 129 1 -4.25861 4.78954 24.946
 130 1 -5.16728 3.79139 24.5129
 131 1 -5.71728 2.89623 25.4657
 132 1 -6.19706 1.63457 25.0326
 133 1 -6.38085 0.600149 25.9854
 134 1 -6.36503 -0.749568 25.5524
 135 1 -6.15704 -1.7794 26.5051
 136 1 -5.64781 -3.02947 26.0721
 137 1 -5.07698 -3.91148 27.0249
 138 1 -4.14516 -4.88806 26.5918
 139 1 -3.29086 -5.4996 27.5446
 140 1 -2.06604 -6.06687 27.1115
 141 1 -1.04709 -6.3229 28.0643
 142 1 0.300405 -6.40197 27.6312
 143 1 1.3423 -6.26687 28.584
 144 1 2.62507 -5.84675 28.1509
 145 1 3.54502 -5.33931 29.1037
 146 1 4.58467 -4.47842 28.6706
 147 1 5.25474 -3.66922 29.6234
 148 1 5.90668 -2.48728 29.1903
 149 1 6.23368 -1.48885 30.1431
 150 1 6.40725 -0.150244 29.71
 151 1 6.11364 1.92325 20.0088
 152 1 5.57524 3.16103 19.5757
 153 1 4.98389 4.02943 20.5285
 154 1 4.02943 4.98389 20.0954
 155 1 3.16103 5.57524 21.0482
 156 1 1.92325 6.11364 20.6151
 157 1 0.898575 6.34571 21.5679
 158 1 -0.450401 6.39317 21.1348
 159 1 -1.48885 6.23368 22.0876
 160 1 -2.76141 5.7836 21.6545
 161 1 -3.66922 5.25474 22.6073
 162 1 -4.68839 4.36971 22.1742
 163 1 -5.33931 3.54502 23.127
 164 1 -5.96336 2.34813 22.694
 165 1 -6.26687 1.3423 23.6468
 166 1 -6.40901 7.84877e-16 23.2137
 167 1 -6.3229 -1.04709 24.1665
 168 1 -5.96336 -2.34813 23.7334
 169 1 -5.4996 -3.29086 24.6862
 170 1 -4.68839 -4.36971 24.2531
 171 1 -3.91148 -5.07698 25.2059
 172 1 -2.76141 -5.7836 24.7728
 173 1 -1.7794 -6.15704 25.7256
 174 1 -0.450401 -6.39317 25.2925
 175 1 0.600149 -6.38085 26.2453
 176 1 1.92325 -6.11364 25.8122
 177 1 2.89623 -5.71728 26.765
 178 1 4.02943 -4.98389 26.3319
 179 1 4.78954 -4.25861 27.2847
 180 1 5.57524 -3.16103 26.8516
 181 1 6.01677 -2.20769 27.8044
 182 1 6.34571 -0.898575 27.3713
 183 1 6.29661 1.19502 17.6701
 184 1 5.90668 2.48728 17.237
 185 1 5.42095 3.41888 18.1898
 186 1 4.58467 4.47842 17.7567
 187 1 3.79139 5.16728 18.7095
 188 1 2.62507 5.84675 18.2764
 189 1 1.63457 6.19706 19.2292
 190 1 0.300405 6.40197 18.7961
 191 1 -0.749568 6.36503 19.7489
 192 1 -2.06604 6.06687 19.3158
 193 1 -3.02947 5.64781 20.2686
 194 1 -4.14516 4.88806 19.8356
 195 1 -4.88806 4.14516 20.7884
 196 1 -5.64781 3.02947 20.3553
 197 1 -6.06687 2.06604 21.3081
 198 1 -6.36503 0.749568 20.875
 199 1 -6.40197 -0.300405 21.8278
 200 1 -6.19706 -1.63457 21.3947
 201 1 -5.84675 -2.62507 22.3475
 202 1 -5.16728 -3.79139 21.9144
 203 1 -4.47842 -4.58467 22.8672
 204 1 -3.41888 -5.42095 22.4341
 205 1 -2.48728 -5.90668 23.3869
 206 1 -1.19502 -6.29661 22.9538
 207 1 -0.150244 -6.40725 23.9066
 208 1 1.19502 -6.29661 23.4735
 209 1 2.20769 -6.01677 24.4263
 210 1 3.41888 -5.42095 23.9932
 211 1 4.25861 -4.78954 24.946
 212 1 5.16728 -3.79139 24.5129
 213 1 5.71728 -2.89623 25.4657
 214 1 6.19706 -1.63457 25.0326
 215 1 6.38085 -0.600149 25.9854
 216 1 6.36503 0.749568 25.5524
 217 1 6.39317 0.450401 15.3314
 218 1 6.15704 1.7794 14.8983
 219 1 5.7836 2.76141 15.8511
 220 1 5.07698 3.91148 15.418
 221 1 4.36971 4.68839 16.3708
 222 1 3.29086 5.4996 15.9377
 223 1 2.34813 5.96336 16.8905
 224 1 1.04709 6.3229 16.4574
 225 1 3.92439e-16 6.40901 17.4102
 226 1 -1.3423 6.26687 16.9772
 227 1 -2.34813 5.96336 17.93
 228 1 -3.54502 5.33931 17.4969
 229 1 -4.36971 4.68839 18.4497
 230 1 -5.25474 3.66922 18.0166
 231 1 -5.7836 2.76141 18.9694
 232 1 -6.23368 1.48885 18.5363
 233 1 -6.39317 0.450401 19.4891
 234 1 -6.34571 -0.898575 19.056
 235 1 -6.11364 -1.92325 20.0088
 236 1 -5.57524 -3.16103 19.5757
 237 1 -4.98389 -4.02943 20.5285
 238 1 -4.02943 -4.98389 20.0954
 239 1 -3.16103 -5.57524 21.0482
 240 1 -1.92325 -6.11364 20.6151
 241 1 -0.898575 -6.34571 21.5679
 242 1 0.450401 -6.39317 21.1348
 243 1 1.48885 -6.23368 22.0876
 244 1 2.76141 -5.7836 21.6545
 245 1 3.66922 -5.25474 22.6073
 246 1 4.68839 -4.36971 22.1742
 247 1 5.33931 -3.54502 23.127
 248 1 5.96336 -2.34813 22.694
 249 1 6.26687 -1.3423 23.6468
 250 1 6.40901 -1.56975e-15 23.2137
 251 1 6.06687 2.06604 13.5124
 252 1 5.4996 3.29086 13.0793
 253 1 4.88806 4.14516 14.0321
 254 1 3.91148 5.07698 13.599
 255 1 3.02947 5.64781 14.5518
 256 1 1.7794 6.15704 14.1188
 257 1 0.749568 6.36503 15.0716
 258 1 -0.600149 6.38085 14.6385
 259 1 -1.63457 6.19706 15.5913
 260 1 -2.89623 5.71728 15.1582
 261 1 -3.79139 5.16728 16.111
 262 1 -4.78954 4.25861 15.6779
 263 1 -5.42095 3.41888 16.6307
 264 1 -6.01677 2.20769 16.1976
 265 1 -6.29661 1.19502 17.1504
 266 1 -6.40725 -0.150244 16.7173
 267 1 -6.29661 -1.19502 17.6701
 268 1 -5.90668 -2.48728 17.237
 269 1 -5.42095 -3.41888 18.1898
 270 1 -4.58467 -4.47842 17.7567
 271 1 -3.79139 -5.16728 18.7095
 272 1 -2.62507 -5.84675 18.2764
 273 1 -1.63457 -6.19706 19.2292
 274 1 -0.300405 -6.40197 18.7961
 275 1 0.749568 -6.36503 19.7489
 276 1 2.06604 -6.06687 19.3158
 277 1 3.02947 -5.64781 20.2686
 278 1 4.14516 -4.88806 19.8356
 279 1 4.88806 -4.14516 20.7884
 280 1 5.64781 -3.02947 20.3553
 281 1 6.06687 -2.06604 21.3081
 282 1 6.36503 -0.749568 20.875
 283 1 6.26687 1.3423 11.1737
 284 1 5.84675 2.62507 10.7406
 285 1 5.33931 3.54502 11.6934
 286 1 4.47842 4.58467 11.2604
 287 1 3.66922 5.25474 12.2132
 288 1 2.48728 5.90668 11.7801
 289 1 1.48885 6.23368 12.7329
 290 1 0.150244 6.40725 12.2998
 291 1 -0.898575 6.34571 13.2526
 292 1 -2.20769 6.01677 12.8195
 293 1 -3.16103 5.57524 13.7723
 294 1 -4.25861 4.78954 13.3392
 295 1 -4.98389 4.02943 14.292
 296 1 -5.71728 2.89623 13.8589
 297 1 -6.11364 1.92325 14.8117
 298 1 -6.38085 0.600149 14.3786
 299 1 -6.39317 -0.450401 15.3314
 300 1 -6.15704 -1.7794 14.8983
 301 1 -5.7836 -2.76141 15.8511
 302 1 -5.07698 -3.91148 15.418
 303 1 -4.36971 -4.68839 16.3708
 304 1 -3.29086 -5.4996 15.9377
 305 1 -2.34813 -5.96336 16.8905
 306 1 -1.04709 -6.3229 16.4574
 307 1 4.51503e-15 -6.40901 17.4102
 308 1 1.3423 -6.26687 16.9772
 309 1 2.34813 -5.96336 17.93
 310 1 3.54502 -5.33931 17.4969
 311 1 4.36971 -4.68839 18.4497
 312 1 5.25474 -3.66922 18.0166
 313 1 5.7836 -2.76141 18.9694
 314 1 6.23368 -1.48885 18.5363
 315 1 6.39317 -0.450401 19.4891
 316 1 6.34571 0.898575 19.056
 317 1 6.38085 0.600149 8.83505
 318 1 6.11364 1.92325 8.40196
 319 1 5.71728 2.89623 9.35476
 320 1 4.98389 4.02943 8.92167
 321 1 4.25861 4.78954 9.87447
 322 1 3.16103 5.57524 9.44138
 323 1 2.20769 6.01677 10.3942
 324 1 0.898575 6.34571 9.96109
 325 1 -0.150244 6.40725 10.9139
 326 1 -1.48885 6.23368 10.4808
 327 1 -2.48728 5.90668 11.4336
 328 1 -3.66922 5.25474 11.0005
 329 1 -4.47842 4.58467 11.9533
 330 1 -5.33931 3.54502 11.5202
 331 1 -5.84675 2.62507 12.473
 332 1 -6.26687 1.3423 12.0399
 333 1 -6.40197 0.300405 12.9927
 334 1 -6.3229 -1.04709 12.5596
 335 1 -6.06687 -2.06604 13.5124
 336 1 -5.4996 -3.29086 13.0793
 337 1 -4.88806 -4.14516 14.0321
 338 1 -3.91148 -5.07698 13.599
 339 1 -3.02947 -5.64781 14.5518
 340 1 -1.7794 -6.15704 14.1188
 341 1 -0.749568 -6.36503 15.0716
 342 1 0.600149 -6.38085 14.6385
 343 1 1.63457 -6.19706 15.5913
 344 1 2.89623 -5.71728 15.1582
 345 1 3.79139 -5.16728 16.111
 346 1 4.78954 -4.25861 15.6779
 347 1 5.42095 -3.41888 16.6307
 348 1 6.01677 -2.20769 16.1976
 349 1 6.29661 -1.19502 17.1504
 350 1 6.40725 0.150244 16.7173
 351 1 6.01677 2.20769 7.01607
 352 1 5.42095 3.41888 6.58298
 353 1 4.78954 4.25861 7.53578
 354 1 3.79139 5.16728 7.10269
 355 1 2.89623 5.71728 8.05549
 356 1 1.63457 6.19706 7.6224
 357 1 0.600149 6.38085 8.5752
 358 1 -0.749568 6.36503 8.14211
 359 1 -1.7794 6.15704 9.0949
 360 1 -3.02947 5.64781 8.66181
 361 1 -3.91148 5.07698 9.61461
 362 1 -4.88806 4.14516 9.18152
 363 1 -5.4996 3.29086 10.1343
 364 1 -6.06687 2.06604 9.70123
 365 1 -6.3229 1.04709 10.654
 366 1 -6.40197 -0.300405 10.2209
 367 1 -6.26687 -1.3423 11.1737
 368 1 -5.84675 -2.62507 10.7406
 369 1 -5.33931 -3.54502 11.6934
 370 1 -4.47842 -4.58467 11.2604
 371 1 -3.66922 -5.25474 12.2132
 372 1 -2.48728 -5.90668 11.7801
 373 1 -1.48885 -6.23368 12.7329
 374 1 -0.150244 -6.40725 12.2998
 375 1 0.898575 -6.34571 13.2526
 376 1 2.20769 -6.01677 12.8195
 377 1 3.16103 -5.57524 13.7723
 378 1 4.25861 -4.78954 13.3392
 379 1 4.98389 -4.02943 14.292
 380 1 5.71728 -2.89623 13.8589
 381 1 6.11364 -1.92325 14.8117
 382 1 6.38085 -0.600149 14.3786
 383 1 6.23368 1.48885 4.67738
 384 1 5.7836 2.76141 4.24429
 385 1 5.25474 3.66922 5.19709
 386 1 4.36971 4.68839 4.764
 387 1 3.54502 5.33931 5.7168
 388 1 2.34813 5.96336 5.28371
 389 1 1.3423 6.26687 6.23651
 390 1 3.92439e-16 6.40901 5.80342
 391 1 -1.04709 6.3229 6.75621
 392 1 -2.34813 5.96336 6.32312
 393 1 -3.29086 5.4996 7.27592
 394 1 -4.36971 4.68839 6.84283
 395 1 -5.07698 3.91148 7.79563
 396 1 -5.7836 2.76141 7.36254
 397 1 -6.15704 1.7794 8.31534
 398 1 -6.39317 0.450401 7.88225
 399 1 -6.38085 -0.600149 8.83505
 400 1 -6.11364 -1.92325 8.40196
 401 1 -5.71728 -2.89623 9.35476
 402 1 -4.98389 -4.02943 8.92167
 403 1 -4.25861 -4.78954 9.87447
 404 1 -3.16103 -5.57524 9.44138
 405 1 -2.20769 -6.01677 10.3942
 406 1 -0.898575 -6.34571 9.96109
 407 1 0.150244 -6.40725 10.9139
 408 1 1.48885 -6.23368 10.4808
 409 1 2.48728 -5.90668 11.4336
 410 1 3.66922 -5.25474 11.0005
 411 1 4.47842 -4.58467 11.9533
 412 1 5.33931 -3.54502 11.5202
 413 1 5.84675 -2.62507 12.473
 414 1 6.26687 -1.3423 12.0399
 415 1 6.40197 -0.300405 12.9927
 416 1 6.3229 1.04709 12.5596
 417 1 6.36503 0.749568 2.33869
 418 1 6.06687 2.06604 1.9056
 419 1 5.64781 3.02947 2.8584
 420 1 4.88806 4.14516 2.42531
 421 1 4.14516 4.88806 3.37811
 422 1 3.02947 5.64781 2.94502
 423 1 2.06604 6.06687 3.89782
 424 1 0.749568 6.36503 3.46473
 425 1 -0.300405 6.40197 4.41752
 426 1 -1.63457 6.19706 3.98443
 427 1 -2.62507 5.84675 4.93723
 428 1 -3.79139 5.16728 4.50414
 429 1 -4.58467 4.47842 5.45694
 430 1 -5.42095 3.41888 5.02385
 431 1 -5.90668 2.48728 5.97665
 432 1 -6.29661 1.19502 5.54356
 433 1 -6.40725 0.150244 6.49636
 434 1 -6.29661 -1.19502 6.06327
 435 1 -6.01677 -2.20769 7.01607
 436 1 -5.42095 -3.41888 6.58298
 437 1 -4.78954 -4.25861 7.53578
 438 1 -3.79139 -5.16728 7.10269
 439 1 -2.89623 -5.71728 8.05549
 440 1 -1.63457 -6.19706 7.6224
 441 1 -0.600149 -6.38085 8.5752
 442 1 0.749568 -6.36503 8.14211
 443 1 1.7794 -6.15704 9.0949
 444 1 3.02947 -5.64781 8.66181
 445 1 3.91148 -5.07698 9.61461
 446 1 4.88806 -4.14516 9.18152
 447 1 5.4996 -3.29086 10.1343
 448 1 6.06687 -2.06604 9.70123
 449 1 6.3229 -1.04709 10.654
 450 1 6.40197 0.300405 10.2209
 451 1 6.40901 0 0
 452 1 6.26687 1.3423 -0.433091
 453 1 5.96336 2.34813 0.519709
 454 1 5.33931 3.54502 0.0866181
 455 1 4.68839 4.36971 1.03942
 456 1 3.66922 5.25474 0.606327
 457 1 2.76141 5.7836 1.55913
 458 1 1.48885 6.23368 1.12604
 459 1 0.450401 6.39317 2.07884
 460 1 -0.898575 6.34571 1.64574
 461 1 -1.92325 6.11364 2.59854
 462 1 -3.16103 5.57524 2.16545
 463 1 -4.02943 4.98389 3.11825
 464 1 -4.98389 4.02943 2.68516
 465 1 -5.57524 3.16103 3.63796
 466 1 -6.11364 1.92325 3.20487
 467 1 -6.34571 0.898575 4.15767
 468 1 -6.39317 -0.450401 3.72458
 469 1 -6.23368 -1.48885 4.67738
 470 1 -5.7836 -2.76141 4.24429
 471 1 -5.25474 -3.66922 5.19709
 472 1 -4.36971 -4.68839 4.764
 473 1 -3.54502 -5.33931 5.7168
 474 1 -2.34813 -5.96336 5.28371
 475 1 -1.3423 -6.26687 6.23651
 476 1 -1.17732e-15 -6.40901 5.80342
 477 1 1.04709 -6.3229 6.75621
 478 1 2.34813 -5.96336 6.32312
 479 1 3.29086 -5.4996 7.27592
 480 1 4.36971 -4.68839 6.84283
 481 1 5.07698 -3.91148 7.79563
 482 1 5.7836 -2.76141 7.36254
 483 1 6.15704 -1.7794 8.31534
 484 1 6.39317 -0.450401 7.88225
 485 1 -1.19502 6.29661 0.259854
 486 1 -2.48728 5.90668 -0.173236
 487 1 -3.41888 5.42095 0.779563
 488 1 -4.47842 4.58467 0.346473
 489 1 -5.16728 3.79139 1.29927
 490 1 -5.84675 2.62507 0.866181
 491 1 -6.19706 1.63457 1.81898
 492 1 -6.40197 0.300405 1.38589
 493 1 -6.36503 -0.749568 2.33869
 494 1 -6.06687 -2.06604 1.9056
 495 1 -5.64781 -3.02947 2.8584
 496 1 -4.88806 -4.14516 2.42531
 497 1 -4.14516 -4.88806 3.37811
 498 1 -3.02947 -5.64781 2.94502
 499 1 -2.06604 -6.06687 3.89782
 500 1 -0.749568 -6.36503 3.46473
 501 1 0.300405 -6.40197 4.41752
 502 1 1.63457 -6.19706 3.98443
 503 1 2.62507 -5.84675 4.93723
 504 1 3.79139 -5.16728 4.50414
 505 1 4.58467 -4.47842 5.45694
 506 1 5.42095 -3.41888 5.02385
 507 1 5.90668 -2.48728 5.97665
 508 1 6.29661 -1.19502 5.54356
 509 1 6.40725 -0.150244 6.49636
 510 1 6.29661 1.19502 6.06327
 511 1 -6.40901 7.84877e-16 0
 512 1 -6.26687 -1.3423 -0.433091
 513 1 -5.96336 -2.34813 0.519709
 514 1 -5.33931 -3.54502 0.0866181
 515 1 -4.68839 -4.36971 1.03942
 516 1 -3.66922 -5.25474 0.606327
 517 1 -2.76141 -5.7836 1.55913
 518 1 -1.48885 -6.23368 1.12604
 519 1 -0.450401 -6.39317 2.07884
 520 1 0.898575 -6.34571 1.64574
 521 1 1.92325 -6.11364 2.59854
 522 1 3.16103 -5.57524 2.16545
 523 1 4.02943 -4.98389 3.11825
 524 1 4.98389 -4.02943 2.68516
 525 1 5.57524 -3.16103 3.63796
 526 1 6.11364 -1.92325 3.20487
 527 1 6.34571 -0.898575 4.15767
 528 1 6.39317 0.450401 3.72458
 529 1 1.19502 -6.29661 0.259854
 530 1 2.48728 -5.90668 -0.173236
 531 1 3.41888 -5.42095 0.779563
 532 1 4.47842 -4.58467 0.346473
 533 1 5.16728 -3.79139 1.29927
 534 1 5.84675 -2.62507 0.866181
 535 1 6.19706 -1.63457 1.81898
 536 1 6.40197 -0.300405 1.38589
 537 1 6.19706 1.63457 67.822
 538 1 5.71728 2.89623 67.3889
 539 1 5.16728 3.79139 68.3417
 540 1 4.25861 4.78954 67.9086
 541 1 3.41888 5.42095 68.8614
 542 1 2.20769 6.01677 68.4283
 543 1 1.19502 6.29661 69.3811
 544 1 -0.150244 6.40725 68.948
 545 1 6.34571 0.898575 65.4833
 546 1 6.01677 2.20769 65.0502
 547 1 5.57524 3.16103 66.003
 548 1 4.78954 4.25861 65.5699
 549 1 4.02943 4.98389 66.5227
 550 1 2.89623 5.71728 66.0896
 551 1 1.92325 6.11364 67.0424
 552 1 0.600149 6.38085 66.6093
 553 1 -0.450401 6.39317 67.5621
 554 1 -1.7794 6.15704 67.1291
 555 1 -2.76141 5.7836 68.0819
 556 1 -3.91148 5.07698 67.6488
 557 1 -4.68839 4.36971 68.6016
 558 1 -5.4996 3.29086 68.1685
 559 1 -5.96336 2.34813 69.1213
 560 1 -6.3229 1.04709 68.6882
 561 1 6.40725 0.150244 63.1446
 562 1 6.23368 1.48885 62.7115
 563 1 5.90668 2.48728 63.6643
 564 1 5.25474 3.66922 63.2312
 565 1 4.58467 4.47842 64.184
 566 1 3.54502 5.33931 63.7509
 567 1 2.62507 5.84675 64.7038
 568 1 1.3423 6.26687 64.2707
 569 1 0.300405 6.40197 65.2235
 570 1 -1.04709 6.3229 64.7904
 571 1 -2.06604 6.06687 65.7432
 572 1 -3.29086 5.4996 65.3101
 573 1 -4.14516 4.88806 66.2629
 574 1 -5.07698 3.91148 65.8298
 575 1 -5.64781 3.02947 66.7826
 576 1 -6.15704 1.7794 66.3495
 577 1 -6.36503 0.749568 67.3023
 578 1 -6.38085 -0.600149 66.8692
 579 1 -6.19706 -1.63457 67.822
 580 1 -5.71728 -2.89623 67.3889
 581 1 -5.16728 -3.79139 68.3417
 582 1 -4.25861 -4.78954 67.9086
 583 1 -3.41888 -5.42095 68.8614
 584 1 -2.20769 -6.01677 68.4283
 585 1 -1.19502 -6.29661 69.3811
 586 1 0.150244 -6.40725 68.948
 587 1 6.15704 1.7794 61.3256
 588 1 5.64781 3.02947 60.8926
 589 1 5.07698 3.91148 61.8453
 590 1 4.14516 4.88806 61.4123
 591 1 3.29086 5.4996 62.3651
 592 1 2.06604 6.06687 61.932
 593 1 1.04709 6.3229 62.8848
 594 1 -0.300405 6.40197 62.4517
 595 1 -1.3423 6.26687 63.4045
 596 1 -2.62507 5.84675 62.9714
 597 1 -3.54502 5.33931 63.9242
 598 1 -4.58467 4.47842 63.4911
 599 1 -5.25474 3.66922 64.4439
 600 1 -5.90668 2.48728 64.0108
 601 1 -6.23368 1.48885 64.9636
 602 1 -6.40725 0.150244 64.5305
 603 1 -6.34571 -0.898575 65.4833
 604 1 -6.01677 -2.20769 65.0502
 605 1 -5.57524 -3.16103 66.003
 606 1 -4.78954 -4.25861 65.5699
 607 1 -4.02943 -4.98389 66.5227
 608 1 -2.89623 -5.71728 66.0896
 609 1 -1.92325 -6.11364 67.0424
 610 1 -0.600149 -6.38085 66.6093
 611 1 0.450401 -6.39317 67.5621
 612 1 1.7794 -6.15704 67.1291
 613 1 2.76141 -5.7836 68.0819
 614 1 3.91148 -5.07698 67.6488
 615 1 4.68839 -4.36971 68.6016
 616 1 5.4996 -3.29086 68.1685
 617 1 5.96336 -2.34813 69.1213
 618 1 6.3229 -1.04709 68.6882
 619 1 6.3229 1.04709 58.9869
 620 1 5.96336 2.34813 58.5539
 621 1 5.4996 3.29086 59.5067
 622 1 4.68839 4.36971 59.0736
 623 1 3.91148 5.07698 60.0264
 624 1 2.76141 5.7836 59.5933
 625 1 1.7794 6.15704 60.5461
 626 1 0.450401 6.39317 60.113
 627 1 -0.600149 6.38085 61.0658
 628 1 -1.92325 6.11364 60.6327
 629 1 -2.89623 5.71728 61.5855
 630 1 -4.02943 4.98389 61.1524
 631 1 -4.78954 4.25861 62.1052
 632 1 -5.57524 3.16103 61.6721
 633 1 -6.01677 2.20769 62.6249
 634 1 -6.34571 0.898575 62.1918
 635 1 -6.40725 -0.150244 63.1446
 636 1 -6.23368 -1.48885 62.7115
 637 1 -5.90668 -2.48728 63.6643
 638 1 -5.25474 -3.66922 63.2312
 639 1 -4.58467 -4.47842 64.184
 640 1 -3.54502 -5.33931 63.7509
 641 1 -2.62507 -5.84675 64.7038
 642 1 -1.3423 -6.26687 64.2707
 643 1 -0.300405 -6.40197 65.2235
 644 1 1.04709 -6.3229 64.7904
 645 1 2.06604 -6.06687 65.7432
 646 1 3.29086 -5.4996 65.3101
 647 1 4.14516 -4.88806 66.2629
 648 1 5.07698 -3.91148 65.8298
 649 1 5.64781 -3.02947 66.7826
 650 1 6.15704 -1.7794 66.3495
 651 1 6.36503 -0.749568 67.3023
 652 1 6.38085 0.600149 66.8692
 653 1 6.40197 0.300405 56.6483
 654 1 6.19706 1.63457 56.2152
 655 1 5.84675 2.62507 57.168
 656 1 5.16728 3.79139 56.7349
 657 1 4.47842 4.58467 57.6877
 658 1 3.41888 5.42095 57.2546
 659 1 2.48728 5.90668 58.2074
 660 1 1.19502 6.29661 57.7743
 661 1 0.150244 6.40725 58.7271
 662 1 -1.19502 6.29661 58.294
 663 1 -2.20769 6.01677 59.2468
 664 1 -3.41888 5.42095 58.8137
 665 1 -4.25861 4.78954 59.7665
 666 1 -5.16728 3.79139 59.3334
 667 1 -5.71728 2.89623 60.2862
 668 1 -6.19706 1.63457 59.8531
 669 1 -6.38085 0.600149 60.8059
 670 1 -6.36503 -0.749568 60.3728
 671 1 -6.15704 -1.7794 61.3256
 672 1 -5.64781 -3.02947 60.8926
 673 1 -5.07698 -3.91148 61.8453
 674 1 -4.14516 -4.88806 61.4123
 675 1 -3.29086 -5.4996 62.3651
 676 1 -2.06604 -6.06687 61.932
 677 1 -1.04709 -6.3229 62.8848
 678 1 0.300405 -6.40197 62.4517
 679 1 1.3423 -6.26687 63.4045
 680 1 2.62507 -5.84675 62.9714
 681 1 3.54502 -5.33931 63.9242
 682 1 4.58467 -4.47842 63.4911
 683 1 5.25474 -3.66922 64.4439
 684 1 5.90668 -2.48728 64.0108
 685 1 6.23368 -1.48885 64.9636
 686 1 6.40725 -0.150244 64.5305
 687 1 6.11364 1.92325 54.8293
 688 1 5.57524 3.16103 54.3962
 689 1 4.98389 4.02943 55.349
 690 1 4.02943 4.98389 54.9159
 691 1 3.16103 5.57524 55.8687
 692 1 1.92325 6.11364 55.4356
 693 1 0.898575 6.34571 56.3884
 694 1 -0.450401 6.39317 55.9553
 695 1 -1.48885 6.23368 56.9081
 696 1 -2.76141 5.7836 56.475
 697 1 -3.66922 5.25474 57.4278
 698 1 -4.68839 4.36971 56.9947
 699 1 -5.33931 3.54502 57.9475
 700 1 -5.96336 2.34813 57.5144
 701 1 -6.26687 1.3423 58.4672
 702 1 -6.40901 7.84877e-16 58.0342
 703 1 -6.3229 -1.04709 58.9869
 704 1 -5.96336 -2.34813 58.5539
 705 1 -5.4996 -3.29086 59.5067
 706 1 -4.68839 -4.36971 59.0736
 707 1 -3.91148 -5.07698 60.0264
 708 1 -2.76141 -5.7836 59.5933
 709 1 -1.7794 -6.15704 60.5461
 710 1 -0.450401 -6.39317 60.113
 711 1 0.600149 -6.38085 61.0658
 712 1 1.92325 -6.11364 60.6327
 713 1 2.89623 -5.71728 61.5855
 714 1 4.02943 -4.98389 61.1524
 715 1 4.78954 -4.25861 62.1052
 716 1 5.57524 -3.16103 61.6721
 717 1 6.01677 -2.20769 62.6249
 718 1 6.34571 -0.898575 62.1918
 719 1 6.29661 1.19502 52.4906
 720 1 5.90668 2.48728 52.0575
 721 1 5.42095 3.41888 53.0103
 722 1 4.58467 4.47842 52.5772
 723 1 3.79139 5.16728 53.53
 724 1 2.62507 5.84675 53.0969
 725 1 1.63457 6.19706 54.0497
 726 1 0.300405 6.40197 53.6166
 727 1 -0.749568 6.36503 54.5694
 728 1 -2.06604 6.06687 54.1363
 729 1 -3.02947 5.64781 55.0891
 730 1 -4.14516 4.88806 54.656
 731 1 -4.88806 4.14516 55.6088
 732 1 -5.64781 3.02947 55.1758
 733 1 -6.06687 2.06604 56.1286
 734 1 -6.36503 0.749568 55.6955
 735 1 -6.40197 -0.300405 56.6483
 736 1 -6.19706 -1.63457 56.2152
 737 1 -5.84675 -2.62507 57.168
 738 1 -5.16728 -3.79139 56.7349
 739 1 -4.47842 -4.58467 57.6877
 740 1 -3.41888 -5.42095 57.2546
 741 1 -2.48728 -5.90668 58.2074
 742 1 -1.19502 -6.29661 57.7743
 743 1 -0.150244 -6.40725 58.7271
 744 1 1.19502 -6.29661 58.294
 745 1 2.20769 -6.01677 59.2468
 746 1 3.41888 -5.42095 58.8137
 747 1 4.25861 -4.78954 59.7665
 748 1 5.16728 -3.79139 59.3334
 749 1 5.71728 -2.89623 60.2862
 750 1 6.19706 -1.63457 59.8531
 751 1 6.38085 -0.600149 60.8059
 752 1 6.36503 0.749568 60.3728
 753 1 6.39317 0.450401 50.1519
 754 1 6.15704 1.7794 49.7188
 755 1 5.7836 2.76141 50.6716
 756 1 5.07698 3.91148 50.2385
 757 1 4.36971 4.68839 51.1913
 758 1 3.29086 5.4996 50.7582
 759 1 2.34813 5.96336 51.711
 760 1 1.04709 6.3229 51.2779
 761 1 3.92439e-16 6.40901 52.2307
 762 1 -1.3423 6.26687 51.7976
 763 1 -2.34813 5.96336 52.7504
 764 1 -3.54502 5.33931 52.3174
 765 1 -4.36971 4.68839 53.2702
 766 1 -5.25474 3.66922 52.8371
 767 1 -5.7836 2.76141 53.7899
 768 1 -6.23368 1.48885 53.3568
 769 1 -6.39317 0.450401 54.3096
 770 1 -6.34571 -0.898575 53.8765
 771 1 -6.11364 -1.92325 54.8293
 772 1 -5.57524 -3.16103 54.3962
 773 1 -4.98389 -4.02943 55.349
 774 1 -4.02943 -4.98389 54.9159
 775 1 -3.16103 -5.57524 55.8687
 776 1 -1.92325 -6.11364 55.4356
 777 1 -0.898575 -6.34571 56.3884
 778 1 0.450401 -6.39317 55.9553
 779 1 1.48885 -6.23368 56.9081
 780 1 2.76141 -5.7836 56.475
 781 1 3.66922 -5.25474 57.4278
 782 1 4.68839 -4.36971 56.9947
 783 1 5.33931 -3.54502 57.9475
 784 1 5.96336 -2.34813 57.5144
 785 1 6.26687 -1.3423 58.4672
 786 1 6.40901 -1.56975e-15 58.0342
 787 1 6.06687 2.06604 48.3329
 788 1 5.4996 3.29086 47.8998
 789 1 4.88806 4.14516 48.8526
 790 1 3.91148 5.07698 48.4195
 791 1 3.02947 5.64781 49.3723
 792 1 1.7794 6.15704 48.9392
 793 1 0.749568 6.36503 49.892
 794 1 -0.600149 6.38085 49.459
 795 1 -1.63457 6.19706 50.4118
 796 1 -2.89623 5.71728 49.9787
 797 1 -3.79139 5.16728 50.9315
 798 1 -4.78954 4.25861 50.4984
 799 1 -5.42095 3.41888 51.4512
 800 1 -6.01677 2.20769 51.0181
 801 1 -6.29661 1.19502 51.9709
 802 1 -6.40725 -0.150244 51.5378
 803 1 -6.29661 -1.19502 52.4906
 804 1 -5.90668 -2.48728 52.0575
 805 1 -5.42095 -3.41888 53.0103
 806 1 -4.58467 -4.47842 52.5772
 807 1 -3.79139 -5.16728 53.53
 808 1 -2.62507 -5.84675 53.0969
 809 1 -1.63457 -6.19706 54.0497
 810 1 -0.300405 -6.40197 53.6166
 811 1 0.749568 -6.36503 54.5694
 812 1 2.06604 -6.06687 54.1363
 813 1 3.02947 -5.64781 55.0891
 814 1 4.14516 -4.88806 54.656
 815 1 4.88806 -4.14516 55.6088
 816 1 5.64781 -3.02947 55.1758
 817 1 6.06687 -2.06604 56.1286
 818 1 6.36503 -0.749568 55.6955
 819 1 6.26687 1.3423 45.9942
 820 1 5.84675 2.62507 45.5611
 821 1 5.33931 3.54502 46.5139
 822 1 4.47842 4.58467 46.0808
 823 1 3.66922 5.25474 47.0336
 824 1 2.48728 5.90668 46.6006
 825 1 1.48885 6.23368 47.5534
 826 1 0.150244 6.40725 47.1203
 827 1 -0.898575 6.34571 48.0731
 828 1 -2.20769 6.01677 47.64
 829 1 -3.16103 5.57524 48.5928
 830 1 -4.25861 4.78954 48.1597
 831 1 -4.98389 4.02943 49.1125
 832 1 -5.71728 2.89623 48.6794
 833 1 -6.11364 1.92325 49.6322
 834 1 -6.38085 0.600149 49.1991
 835 1 -6.39317 -0.450401 50.1519
 836 1 -6.15704 -1.7794 49.7188
 837 1 -5.7836 -2.76141 50.6716
 838 1 -5.07698 -3.91148 50.2385
 839 1 -4.36971 -4.68839 51.1913
 840 1 -3.29086 -5.4996 50.7582
 841 1 -2.34813 -5.96336 51.711
 842 1 -1.04709 -6.3229 51.2779
 843 1 4.51503e-15 -6.40901 52.2307
 844 1 1.3423 -6.26687 51.7976
 845 1 2.34813 -5.96336 52.7504
 846 1 3.54502 -5.33931 52.3174
 847 1 4.36971 -4.68839 53.2702
 848 1 5.25474 -3.66922 52.8371
 849 1 5.7836 -2.76141 53.7899
 850 1 6.23368 -1.48885 53.3568
 851 1 6.39317 -0.450401 54.3096
 852 1 6.34571 0.898575 53.8765
 853 1 6.38085 0.600149 43.6555
 854 1 6.11364 1.92325 43.2225
 855 1 5.71728 2.89623 44.1753
 856 1 4.98389 4.02943 43.7422
 857 1 4.25861 4.78954 44.695
 858 1 3.16103 5.57524 44.2619
 859 1 2.20769 6.01677 45.2147
 860 1 0.898575 6.34571 44.7816
 861 1 -0.150244 6.40725 45.7344
 862 1 -1.48885 6.23368 45.3013
 863 1 -2.48728 5.90668 46.2541
 864 1 -3.66922 5.25474 45.821
 865 1 -4.47842 4.58467 46.7738
 866 1 -5.33931 3.54502 46.3407
 867 1 -5.84675 2.62507 47.2935
 868 1 -6.26687 1.3423 46.8604
 869 1 -6.40197 0.300405 47.8132
 870 1 -6.3229 -1.04709 47.3801
 871 1 -6.06687 -2.06604 48.3329
 872 1 -5.4996 -3.29086 47.8998
 873 1 -4.88806 -4.14516 48.8526
 874 1 -3.91148 -5.07698 48.4195
 875 1 -3.02947 -5.64781 49.3723
 876 1 -1.7794 -6.15704 48.9392
 877 1 -0.749568 -6.36503 49.892
 878 1 0.600149 -6.38085 49.459
 879 1 1.63457 -6.19706 50.4118
 880 1 2.89623 -5.71728 49.9787
 881 1 3.79139 -5.16728 50.9315
 882 1 4.78954 -4.25861 50.4984
 883 1 5.42095 -3.41888 51.4512
 884 1 6.01677 -2.20769 51.0181
 885 1 6.29661 -1.19502 51.9709
 886 1 6.40725 0.150244 51.5378
 887 1 6.01677 2.20769 41.8366
 888 1 5.42095 3.41888 41.4035
 889 1 4.78954 4.25861 42.3563
 890 1 3.79139 5.16728 41.9232
 891 1 2.89623 5.71728 42.876
 892 1 1.63457 6.19706 42.4429
 893 1 0.600149 6.38085 43.3957
 894 1 -0.749568 6.36503 42.9626
 895 1 -1.7794 6.15704 43.9154
 896 1 -3.02947 5.64781 43.4823
 897 1 -3.91148 5.07698 44.4351
 898 1 -4.88806 4.14516 44.002
 899 1 -5.4996 3.29086 44.9548
 900 1 -6.06687 2.06604 44.5217
 901 1 -6.3229 1.04709 45.4745
 902 1 -6.40197 -0.300405 45.0414
 903 1 -6.26687 -1.3423 45.9942
 904 1 -5.84675 -2.62507 45.5611
 905 1 -5.33931 -3.54502 46.5139
 906 1 -4.47842 -4.58467 46.0808
 907 1 -3.66922 -5.25474 47.0336
 908 1 -2.48728 -5.90668 46.6006
 909 1 -1.48885 -6.23368 47.5534
 910 1 -0.150244 -6.40725 47.1203
 911 1 0.898575 -6.34571 48.0731
 912 1 2.20769 -6.01677 47.64
 913 1 3.16103 -5.57524 48.5928
 914 1 4.25861 -4.78954 48.1597
 915 1 4.98389 -4.02943 49.1125
 916 1 5.71728 -2.89623 48.6794
 917 1 6.11364 -1.92325 49.6322
 918 1 6.38085 -0.600149 49.1991
 919 1 6.23368 1.48885 39.4979
 920 1 5.7836 2.76141 39.0648
 921 1 5.25474 3.66922 40.0176
 922 1 4.36971 4.68839 39.5845
 923 1 3.54502 5.33931 40.5373
 924 1 2.34813 5.96336 40.1042
 925 1 1.3423 6.26687 41.057
 926 1 3.92439e-16 6.40901 40.6239
 927 1 -1.04709 6.3229 41.5767
 928 1 -2.34813 5.96336 41.1436
 929 1 -3.29086 5.4996 42.0964
 930 1 -4.36971 4.68839 41.6633
 931 1 -5.07698 3.91148 42.6161
 932 1 -5.7836 2.76141 42.183
 933 1 -6.15704 1.7794 43.1358
 934 1 -6.39317 0.450401 42.7027
 935 1 -6.38085 -0.600149 43.6555
 936 1 -6.11364 -1.92325 43.2225
 937 1 -5.71728 -2.89623 44.1753
 938 1 -4.98389 -4.02943 43.7422