ITEM: TIMESTEP
0
ITEM: NUMBER OF ATOMS
2964
ITEM: BOX BOUNDS pp pp pp
-50 50
-50 50
-0.315781 200.255
ITEM: ATOMS id type xu yu zu
 1 1 5.95557 1.54852 64.9621
 2 1 5.48467 2.79019 64.4659
 3 1 4.90373 3.71755 65.3681
 4 1 3.99197 4.68304 64.8719
 5 1 3.09936 5.31608 65.7742
 6 1 1.88667 5.85723 65.2779
 7 1 0.819368 6.0988 66.1802
 8 1 -0.50816 6.13258 65.6839
 9 1 -1.58637 5.9456 66.5862
 10 1 -2.82501 5.46681 66.0899
 11 1 6.11332 0.70287 62.6614
 12 1 5.82017 1.99807 62.1651
 13 1 5.37424 2.99738 63.0674
 14 1 4.60603 4.08059 62.5712
 15 1 3.81042 4.83191 63.4734
 16 1 2.68504 5.5369 62.9772
 17 1 1.66186 5.92494 63.8794
 18 1 0.352012 6.14352 63.3832
 19 1 -0.741734 6.10873 64.2854
 20 1 -2.03504 5.80735 63.7892
 21 1 -3.0315 5.35507 64.6915
 22 1 -4.1098 4.57999 64.1952
 23 1 -4.85605 3.77962 65.0975
 24 1 -5.55386 2.64978 64.6012
 25 1 -5.93539 1.62414 65.5035
 26 1 -6.14563 0.312935 65.0072
 27 1 -6.10389 -0.780567 65.9095
 28 1 -5.79429 -2.07193 65.4133
 29 1 -5.33568 -3.06549 66.3155
 30 1 -4.55376 -4.13884 65.8193
 31 1 -3.74866 -4.87999 66.7215
 32 1 -2.61441 -5.5706 66.2253
 33 1 5.73972 2.21864 60.7667
 34 1 5.13007 3.39839 60.2704
 35 1 4.44701 4.25333 61.1727
 36 1 3.43095 5.10836 60.6764
 37 1 2.47187 5.6353 61.5787
 38 1 1.2053 6.0344 61.0824
 39 1 0.117394 6.15247 61.9847
 40 1 -1.2053 6.0344 61.4885
 41 1 -2.2551 5.72549 62.3907
 42 1 -3.43095 5.10836 61.8945
 43 1 -4.28152 4.41987 62.7967
 44 1 -5.13007 3.39839 62.3005
 45 1 -5.6509 2.43598 63.2027
 46 1 -6.04194 1.1669 62.7065
 47 1 -6.1531 0.0782654 63.6088
 48 1 -6.02661 -1.24365 63.1125
 49 1 -5.71103 -2.29146 64.0148
 50 1 -5.08644 -3.46336 63.5185
 51 1 -4.39256 -4.30954 64.4208
 52 1 -3.3657 -5.15158 63.9245
 53 1 -2.4 -5.66628 64.8268
 54 1 -1.12846 -6.04924 64.3306
 55 1 -0.0391335 -6.15347 65.2328
 56 1 1.28196 -6.01858 64.7366
 57 1 2.32774 -5.69635 65.6388
 58 1 3.49564 -5.06431 65.1426
 59 1 4.33739 -4.36506 66.0448
 60 1 5.17288 -3.33287 65.5486
 61 1 5.68143 -2.36391 66.4508
 62 1 6.05629 -1.08996 65.9546
 63 1 5.99303 1.39654 58.4659
 64 1 5.55386 2.64978 57.9697
 65 1 4.9967 3.59162 58.8719
 66 1 4.1098 4.57999 58.3757
 67 1 3.23358 5.23552 59.2779
 68 1 2.03504 5.80735 58.7817
 69 1 0.974228 6.07598 59.684
 70 1 -0.352012 6.14352 59.1877
 71 1 -1.43463 5.98403 60.09
 72 1 -2.68504 5.5369 59.5937
 73 1 -3.62332 4.97376 60.496
 74 1 -4.60603 4.08059 59.9997
 75 1 -5.25598 3.20022 60.902
 76 1 -5.82017 1.99807 60.4058
 77 1 -6.08206 0.935568 61.308
 78 1 -6.14115 -0.391074 60.8118
 79 1 -5.97478 -1.47265 61.714
 80 1 -5.51971 -2.7202 61.2178
 81 1 -4.95061 -3.65488 62.12
 82 1 -4.05121 -4.63189 61.6238
 83 1 -3.16673 -5.27623 62.5261
 84 1 -1.96101 -5.83276 62.0298
 85 1 -0.896871 -6.08788 62.9321
 86 1 0.43012 -6.13854 62.4358
 87 1 1.51062 -5.96529 63.3381
 88 1 2.75525 -5.5023 62.8418
 89 1 3.68629 -4.92727 63.7441
 90 1 4.65756 -4.02167 63.2479
 91 1 5.29626 -3.13311 64.1501
 92 1 5.84512 -1.92388 63.6539
 93 1 6.09346 -0.858137 64.5561
 94 1 6.13568 0.46915 64.0599
 95 1 6.12922 0.547149 56.1652
 96 1 5.86911 1.84938 55.6689
 97 1 5.44874 2.85972 56.5712
 98 1 4.70833 3.96211 56.0749
 99 1 3.93209 4.73343 56.9772
 100 1 2.82501 5.46681 56.481
 101 1 1.81202 5.88075 57.3832
 102 1 0.50816 6.13258 56.887
 103 1 -0.586117 6.12562 57.7892
 104 1 -1.88667 5.85723 57.293
 105 1 -2.89431 5.43044 58.1952
 106 1 -3.99197 4.68304 57.699
 107 1 -4.75834 3.90191 58.6013
 108 1 -5.48467 2.79019 58.105
 109 1 -5.89216 1.77459 59.0073
 110 1 -6.13568 0.46915 58.511
 111 1 -6.12177 -0.62506 59.4133
 112 1 -5.84512 -1.92388 58.917
 113 1 -5.41192 -2.92879 59.8193
 114 1 -4.65756 -4.02167 59.3231
 115 1 -3.87157 -4.78306 60.2253
 116 1 -2.75525 -5.5023 59.7291
 117 1 -1.73708 -5.90333 60.6313
 118 1 -0.43012 -6.13854 60.1351
 119 1 0.663979 -6.11767 61.0373
 120 1 1.96101 -5.83276 60.5411
 121 1 2.96314 -5.39319 61.4433
 122 1 4.05121 -4.63189 60.9471
 123 1 4.80759 -3.84107 61.8494
 124 1 5.51971 -2.7202 61.3531
 125 1 5.91425 -1.6995 62.2554
 126 1 6.14115 -0.391074 61.7591
 127 1 5.79429 2.07193 54.2704
 128 1 5.21485 3.26681 53.7742
 129 1 4.55376 4.13884 54.6765
 130 1 3.55977 5.01944 54.1802
 131 1 2.61441 5.5706 55.0825
 132 1 1.3584 6.00179 54.5862
 133 1 0.273846 6.1475 55.4885
 134 1 -1.05143 6.0631 54.9922
 135 1 -2.10874 5.781 55.8945
 136 1 -3.2999 5.19397 55.3983
 137 1 -4.16772 4.52735 56.3005
 138 1 -5.04198 3.52777 55.8043
 139 1 -5.58711 2.57893 56.7065
 140 1 -6.0103 1.3202 56.2103
 141 1 -6.14911 0.234746 57.1125
 142 1 -6.05629 -1.08996 56.6163
 143 1 -5.76747 -2.14546 57.5186
 144 1 -5.17288 -3.33287 57.0223
 145 1 -4.50075 -4.19642 57.9246
 146 1 -3.49564 -5.06431 57.4283
 147 1 -2.54334 -5.6034 58.3306
 148 1 -1.28196 -6.01858 57.8343
 149 1 -0.195636 -6.15048 58.7366
 150 1 1.12846 -6.04924 58.2404
 151 1 2.18209 -5.75371 59.1426
 152 1 3.3657 -5.15158 58.6464
 153 1 4.22496 -4.47397 59.5486
 154 1 5.08644 -3.46336 59.0524
 155 1 5.61946 -2.50766 59.9546
 156 1 6.02661 -1.24365 59.4584
 157 1 6.1516 -0.156518 60.3606
 158 1 6.04194 1.1669 59.8644
 159 1 6.02661 1.24365 51.9697
 160 1 5.61946 2.50766 51.4735
 161 1 5.08644 3.46336 52.3757
 162 1 4.22496 4.47397 51.8795
 163 1 3.3657 5.15158 52.7817
 164 1 2.18209 5.75371 52.2855
 165 1 1.12846 6.04924 53.1877
 166 1 -0.195636 6.15048 52.6915
 167 1 -1.28196 6.01858 53.5938
 168 1 -2.54334 5.6034 53.0975
 169 1 -3.49564 5.06431 53.9998
 170 1 -4.50075 4.19642 53.5035
 171 1 -5.17288 3.33287 54.4058
 172 1 -5.76747 2.14546 53.9095
 173 1 -6.05629 1.08996 54.8118
 174 1 -6.14911 -0.234746 54.3156
 175 1 -6.0103 -1.3202 55.2178
 176 1 -5.58711 -2.57893 54.7216
 177 1 -5.04198 -3.52777 55.6238
 178 1 -4.16772 -4.52735 55.1276
 179 1 -3.2999 -5.19397 56.0298
 180 1 -2.10874 -5.781 55.5336
 181 1 -1.05143 -6.0631 56.4358
 182 1 0.273846 -6.1475 55.9396
 183 1 1.3584 -6.00179 56.8419
 184 1 2.61441 -5.5706 56.3456
 185 1 3.55977 -5.01944 57.2479
 186 1 4.55376 -4.13884 56.7516
 187 1 5.21485 -3.26681 57.6539
 188 1 5.79429 -2.07193 57.1576
 189 1 6.06967 -1.01285 58.0599
 190 1 6.14563 0.312935 57.5637
 191 1 6.14115 0.391074 49.669
 192 1 5.91425 1.6995 49.1727
 193 1 5.51971 2.7202 50.075
 194 1 4.80759 3.84107 49.5787
 195 1 4.05121 4.63189 50.481
 196 1 2.96314 5.39319 49.9847
 197 1 1.96101 5.83276 50.887
 198 1 0.663979 6.11767 50.3908
 199 1 -0.43012 6.13854 51.293
 200 1 -1.73708 5.90333 50.7968
 201 1 -2.75525 5.5023 51.699
 202 1 -3.87157 4.78306 51.2028
 203 1 -4.65756 4.02167 52.105
 204 1 -5.41192 2.92879 51.6088
 205 1 -5.84512 1.92388 52.5111
 206 1 -6.12177 0.62506 52.0148
 207 1 -6.13568 -0.46915 52.9171
 208 1 -5.89216 -1.77459 52.4208
 209 1 -5.48467 -2.79019 53.3231
 210 1 -4.75834 -3.90191 52.8268
 211 1 -3.99197 -4.68304 53.7291
 212 1 -2.89431 -5.43044 53.2329
 213 1 -1.88667 -5.85723 54.1351
 214 1 -0.586117 -6.12562 53.6389
 215 1 0.50816 -6.13258 54.5411
 216 1 1.81202 -5.88075 54.0449
 217 1 2.82501 -5.46681 54.9471
 218 1 3.93209 -4.73343 54.4509
 219 1 4.70833 -3.96211 55.3531
 220 1 5.44874 -2.85972 54.8569
 221 1 5.86911 -1.84938 55.7592
 222 1 6.12922 -0.547149 55.2629
 223 1 5.84512 1.92388 47.7742
 224 1 5.29626 3.13311 47.278
 225 1 4.65756 4.02167 48.1802
 226 1 3.68629 4.92727 47.684
 227 1 2.75525 5.5023 48.5863
 228 1 1.51062 5.96529 48.09
 229 1 0.43012 6.13854 48.9923
 230 1 -0.896871 6.08788 48.496
 231 1 -1.96101 5.83276 49.3983
 232 1 -3.16673 5.27623 48.902
 233 1 -4.05121 4.63189 49.8043
 234 1 -4.95061 3.65488 49.3081
 235 1 -5.51971 2.7202 50.2103
 236 1 -5.97478 1.47265 49.7141
 237 1 -6.14115 0.391074 50.6163
 238 1 -6.08206 -0.935568 50.1201
 239 1 -5.82017 -1.99807 51.0223
 240 1 -5.25598 -3.20022 50.5261
 241 1 -4.60603 -4.08059 51.4284
 242 1 -3.62332 -4.97376 50.9321
 243 1 -2.68504 -5.5369 51.8344
 244 1 -1.43463 -5.98403 51.3381
 245 1 -0.352012 -6.14352 52.2404
 246 1 0.974228 -6.07598 51.7441
 247 1 2.03504 -5.80735 52.6464
 248 1 3.23358 -5.23552 52.1502
 249 1 4.1098 -4.57999 53.0524
 250 1 4.9967 -3.59162 52.5562
 251 1 5.55386 -2.64978 53.4584
 252 1 5.99303 -1.39654 52.9622
 253 1 6.14563 -0.312935 53.8644
 254 1 6.06967 1.01285 53.3682
 255 1 6.05629 1.08996 45.4735
 256 1 5.68143 2.36391 44.9773
 257 1 5.17288 3.33287 45.8795
 258 1 4.33739 4.36506 45.3833
 259 1 3.49564 5.06431 46.2855
 260 1 2.32774 5.69635 45.7893
 261 1 1.28196 6.01858 46.6915
 262 1 -0.0391335 6.15347 46.1953
 263 1 -1.12846 6.04924 47.0975
 264 1 -2.4 5.66628 46.6013
 265 1 -3.3657 5.15158 47.5036
 266 1 -4.39256 4.30954 47.0073
 267 1 -5.08644 3.46336 47.9096
 268 1 -5.71103 2.29146 47.4133
 269 1 -6.02661 1.24365 48.3156
 270 1 -6.1531 -0.0782654 47.8193
 271 1 -6.04194 -1.1669 48.7216
 272 1 -5.6509 -2.43598 48.2254
 273 1 -5.13007 -3.39839 49.1276
 274 1 -4.28152 -4.41987 48.6314
 275 1 -3.43095 -5.10836 49.5336
 276 1 -2.2551 -5.72549 49.0374
 277 1 -1.2053 -6.0344 49.9396
 278 1 0.117394 -6.15247 49.4434
 279 1 1.2053 -6.0344 50.3456
 280 1 2.47187 -5.6353 49.8494
 281 1 3.43095 -5.10836 50.7517
 282 1 4.44701 -4.25333 50.2554
 283 1 5.13007 -3.39839 51.1577
 284 1 5.73972 -2.21864 50.6614
 285 1 6.04194 -1.1669 51.5637
 286 1 6.1516 0.156518 51.0675
 287 1 6.14911 0.234746 43.1727
 288 1 5.95557 1.54852 42.6765
 289 1 5.58711 2.57893 43.5788
 290 1 4.90373 3.71755 43.0825
 291 1 4.16772 4.52735 43.9848
 292 1 3.09936 5.31608 43.4885
 293 1 2.10874 5.781 44.3908
 294 1 0.819368 6.0988 43.8946
 295 1 -0.273846 6.1475 44.7968
 296 1 -1.58637 5.9456 44.3006
 297 1 -2.61441 5.5706 45.2028
 298 1 -3.74866 4.87999 44.7066
 299 1 -4.55376 4.13884 45.6088
 300 1 -5.33568 3.06549 45.1126
 301 1 -5.79429 2.07193 46.0148
 302 1 -6.10389 0.780567 45.5186
 303 1 -6.14563 -0.312935 46.4209
 304 1 -5.93539 -1.62414 45.9246
 305 1 -5.55386 -2.64978 46.8269
 306 1 -4.85605 -3.77962 46.3306
 307 1 -4.1098 -4.57999 47.2329
 308 1 -3.0315 -5.35507 46.7366
 309 1 -2.03504 -5.80735 47.6389
 310 1 -0.741734 -6.10873 47.1427
 311 1 0.352012 -6.14352 48.0449
 312 1 1.66186 -5.92494 47.5487
 313 1 2.68504 -5.5369 48.4509
 314 1 3.81042 -4.83191 47.9547
 315 1 4.60603 -4.08059 48.8569
 316 1 5.37424 -2.99738 48.3607
 317 1 5.82017 -1.99807 49.2629
 318 1 6.11332 -0.70287 48.7667
 319 1 5.89216 1.77459 41.278
 320 1 5.37424 2.99738 40.7818
 321 1 4.75834 3.90191 41.684
 322 1 3.81042 4.83191 41.1878
 323 1 2.89431 5.43044 42.09
 324 1 1.66186 5.92494 41.5938
 325 1 0.586117 6.12562 42.4961
 326 1 -0.741734 6.10873 41.9998
 327 1 -1.81202 5.88075 42.9021
 328 1 -3.0315 5.35507 42.4058
 329 1 -3.93209 4.73343 43.3081
 330 1 -4.85605 3.77962 42.8118
 331 1 -5.44874 2.85972 43.7141
 332 1 -5.93539 1.62414 43.2179
 333 1 -6.12922 0.547149 44.1201
 334 1 -6.10389 -0.780567 43.6239
 335 1 -5.86911 -1.84938 44.5261
 336 1 -5.33568 -3.06549 44.0299
 337 1 -4.70833 -3.96211 44.9321
 338 1 -3.74866 -4.87999 44.4359
 339 1 -2.82501 -5.46681 45.3382
 340 1 -1.58637 -5.9456 44.8419
 341 1 -0.50816 -6.13258 45.7442
 342 1 0.819368 -6.0988 45.2479
 343 1 1.88667 -5.85723 46.1502
 344 1 3.09936 -5.31608 45.6539
 345 1 3.99197 -4.68304 46.5562
 346 1 4.90373 -3.71755 46.06
 347 1 5.48467 -2.79019 46.9622
 348 1 5.95557 -1.54852 46.466
 349 1 6.13568 -0.46915 47.3682
 350 1 6.09346 0.858137 46.872
 351 1 6.08206 0.935568 38.9773
 352 1 5.73972 2.21864 38.481
 353 1 5.25598 3.20022 39.3833
 354 1 4.44701 4.25333 38.8871
 355 1 3.62332 4.97376 39.7893
 356 1 2.47187 5.6353 39.2931
 357 1 1.43463 5.98403 40.1953
 358 1 0.117394 6.15247 39.6991
 359 1 -0.974228 6.07598 40.6013
 360 1 -2.2551 5.72549 40.1051
 361 1 -3.23358 5.23552 41.0073
 362 1 -4.28152 4.41987 40.5111
 363 1 -4.9967 3.59162 41.4134
 364 1 -5.6509 2.43598 40.9171
 365 1 -5.99303 1.39654 41.8194
 366 1 -6.1531 0.0782654 41.3231
 367 1 -6.06967 -1.01285 42.2254
 368 1 -5.71103 -2.29146 41.7291
 369 1 -5.21485 -3.26681 42.6314
 370 1 -4.39256 -4.30954 42.1352
 371 1 -3.55977 -5.01944 43.0374
 372 1 -2.4 -5.66628 42.5412
 373 1 -1.3584 -6.00179 43.4434
 374 1 -0.0391335 -6.15347 42.9472
 375 1 1.05143 -6.0631 43.8494
 376 1 2.32774 -5.69635 43.3532
 377 1 3.2999 -5.19397 44.2555
 378 1 4.33739 -4.36506 43.7592
 379 1 5.04198 -3.52777 44.6615
 380 1 5.68143 -2.36391 44.1652
 381 1 6.0103 -1.3202 45.0675
 382 1 6.15359 3.95829e-15 44.5712
 383 1 6.1531 0.0782654 36.6765
 384 1 5.99303 1.39654 36.1803
 385 1 5.6509 2.43598 37.0826
 386 1 4.9967 3.59162 36.5863
 387 1 4.28152 4.41987 37.4886
 388 1 3.23358 5.23552 36.9923
 389 1 2.2551 5.72549 37.8946
 390 1 0.974228 6.07598 37.3983
 391 1 -0.117394 6.15247 38.3006
 392 1 -1.43463 5.98403 37.8044
 393 1 -2.47187 5.6353 38.7066
 394 1 -3.62332 4.97376 38.2104
 395 1 -4.44701 4.25333 39.1126
 396 1 -5.25598 3.20022 38.6164
 397 1 -5.73972 2.21864 39.5186
 398 1 -6.08206 0.935568 39.0224
 399 1 -6.1516 -0.156518 39.9246
 400 1 -5.97478 -1.47265 39.4284
 401 1 -5.61946 -2.50766 40.3307
 402 1 -4.95061 -3.65488 39.8344
 403 1 -4.22496 -4.47397 40.7367
 404 1 -3.16673 -5.27623 40.2404
 405 1 -2.18209 -5.75371 41.1427
 406 1 -0.896871 -6.08788 40.6464
 407 1 0.195636 -6.15048 41.5487
 408 1 1.51062 -5.96529 41.0525
 409 1 2.54334 -5.6034 41.9547
 410 1 3.68629 -4.92727 41.4585
 411 1 4.50075 -4.19642 42.3607
 412 1 5.29626 -3.13311 41.8645
 413 1 5.76747 -2.14546 42.7667
 414 1 6.09346 -0.858137 42.2705
 415 1 5.93539 1.62414 34.7818
 416 1 5.44874 2.85972 34.2856
 417 1 4.85605 3.77962 35.1878
 418 1 3.93209 4.73343 34.6916
 419 1 3.0315 5.35507 35.5938
 420 1 1.81202 5.88075 35.0976
 421 1 0.741734 6.10873 35.9998
 422 1 -0.586117 6.12562 35.5036
 423 1 -1.66186 5.92494 36.4059
 424 1 -2.89431 5.43044 35.9096
 425 1 -3.81042 4.83191 36.8119
 426 1 -4.75834 3.90191 36.3156
 427 1 -5.37424 2.99738 37.2179
 428 1 -5.89216 1.77459 36.7216
 429 1 -6.11332 0.70287 37.6239
 430 1 -6.12177 -0.62506 37.1277
 431 1 -5.91425 -1.6995 38.0299
 432 1 -5.41192 -2.92879 37.5337
 433 1 -4.80759 -3.84107 38.4359
 434 1 -3.87157 -4.78306 37.9397
 435 1 -2.96314 -5.39319 38.8419
 436 1 -1.73708 -5.90333 38.3457
 437 1 -0.663979 -6.11767 39.248
 438 1 0.663979 -6.11767 38.7517
 439 1 1.73708 -5.90333 39.654
 440 1 2.96314 -5.39319 39.1577
 441 1 3.87157 -4.78306 40.06
 442 1 4.80759 -3.84107 39.5637
 443 1 5.41192 -2.92879 40.466
 444 1 5.91425 -1.6995 39.9698
 445 1 6.12177 -0.62506 40.872
 446 1 6.11332 0.70287 40.3758
 447 1 6.10389 0.780567 32.4811
 448 1 5.79429 2.07193 31.9848
 449 1 5.33568 3.06549 32.8871
 450 1 4.55376 4.13884 32.3908
 451 1 3.74866 4.87999 33.2931
 452 1 2.61441 5.5706 32.7969
 453 1 1.58637 5.9456 33.6991
 454 1 0.273846 6.1475 33.2029
 455 1 -0.819368 6.0988 34.1051
 456 1 -2.10874 5.781 33.6089
 457 1 -3.09936 5.31608 34.5111
 458 1 -4.16772 4.52735 34.0149
 459 1 -4.90373 3.71755 34.9171
 460 1 -5.58711 2.57893 34.4209
 461 1 -5.95557 1.54852 35.3232
 462 1 -6.14911 0.234746 34.8269
 463 1 -6.09346 -0.858137 35.7292
 464 1 -5.76747 -2.14546 35.2329
 465 1 -5.29626 -3.13311 36.1352
 466 1 -4.50075 -4.19642 35.6389
 467 1 -3.68629 -4.92727 36.5412
 468 1 -2.54334 -5.6034 36.045
 469 1 -1.51062 -5.96529 36.9472
 470 1 -0.195636 -6.15048 36.451
 471 1 0.896871 -6.08788 37.3532
 472 1 2.18209 -5.75371 36.857
 473 1 3.16673 -5.27623 37.7592
 474 1 4.22496 -4.47397 37.263
 475 1 4.95061 -3.65488 38.1653
 476 1 5.61946 -2.50766 37.669
 477 1 5.97478 -1.47265 38.5713
 478 1 6.1516 -0.156518 38.075
 479 1 5.71103 2.29146 30.5863
 480 1 5.08644 3.46336 30.0901
 481 1 4.39256 4.30954 30.9923
 482 1 3.3657 5.15158 30.4961
 483 1 2.4 5.66628 31.3984
 484 1 1.12846 6.04924 30.9021
 485 1 0.0391335 6.15347 31.8044
 486 1 -1.28196 6.01858 31.3081
 487 1 -2.32774 5.69635 32.2104
 488 1 -3.49564 5.06431 31.7142
 489 1 -4.33739 4.36506 32.6164
 490 1 -5.17288 3.33287 32.1202
 491 1 -5.68143 2.36391 33.0224
 492 1 -6.05629 1.08996 32.5262
 493 1 -6.15359 -1.97915e-15 33.4284
 494 1 -6.0103 -1.3202 32.9322
 495 1 -5.68143 -2.36391 33.8344
 496 1 -5.04198 -3.52777 33.3382
 497 1 -4.33739 -4.36506 34.2405
 498 1 -3.2999 -5.19397 33.7442
 499 1 -2.32774 -5.69635 34.6465
 500 1 -1.05143 -6.0631 34.1502
 501 1 0.0391335 -6.15347 35.0525
 502 1 1.3584 -6.00179 34.5562
 503 1 2.4 -5.66628 35.4585
 504 1 3.55977 -5.01944 34.9623
 505 1 4.39256 -4.30954 35.8645
 506 1 5.21485 -3.26681 35.3683
 507 1 5.71103 -2.29146 36.2705
 508 1 6.06967 -1.01285 35.7743
 509 1 5.97478 1.47265 28.2856
 510 1 5.51971 2.7202 27.7894
 511 1 4.95061 3.65488 28.6916
 512 1 4.05121 4.63189 28.1954
 513 1 3.16673 5.27623 29.0976
 514 1 1.96101 5.83276 28.6014
 515 1 0.896871 6.08788 29.5036
 516 1 -0.43012 6.13854 29.0074
 517 1 -1.51062 5.96529 29.9096
 518 1 -2.75525 5.5023 29.4134
 519 1 -3.68629 4.92727 30.3157
 520 1 -4.65756 4.02167 29.8194
 521 1 -5.29626 3.13311 30.7217
 522 1 -5.84512 1.92388 30.2254
 523 1 -6.09346 0.858137 31.1277
 524 1 -6.13568 -0.46915 30.6314
 525 1 -5.95557 -1.54852 31.5337
 526 1 -5.48467 -2.79019 31.0375
 527 1 -4.90373 -3.71755 31.9397
 528 1 -3.99197 -4.68304 31.4435
 529 1 -3.09936 -5.31608 32.3457
 530 1 -1.88667 -5.85723 31.8495
 531 1 -0.819368 -6.0988 32.7517
 532 1 0.50816 -6.13258 32.2555
 533 1 1.58637 -5.9456 33.1578
 534 1 2.82501 -5.46681 32.6615
 535 1 3.74866 -4.87999 33.5638
 536 1 4.70833 -3.96211 33.0675
 537 1 5.33568 -3.06549 33.9698
 538 1 5.86911 -1.84938 33.4735
 539 1 6.10389 -0.780567 34.3758
 540 1 6.12922 0.547149 33.8796
 541 1 6.12177 0.62506 25.9849
 542 1 5.84512 1.92388 25.4886
 543 1 5.41192 2.92879 26.3909
 544 1 4.65756 4.02167 25.8946
 545 1 3.87157 4.78306 26.7969
 546 1 2.75525 5.5023 26.3006
 547 1 1.73708 5.90333 27.2029
 548 1 0.43012 6.13854 26.7067
 549 1 -0.663979 6.11767 27.6089
 550 1 -1.96101 5.83276 27.1127
 551 1 -2.96314 5.39319 28.0149
 552 1 -4.05121 4.63189 27.5187
 553 1 -4.80759 3.84107 28.4209
 554 1 -5.51971 2.7202 27.9247
 555 1 -5.91425 1.6995 28.8269
 556 1 -6.14115 0.391074 28.3307
 557 1 -6.11332 -0.70287 29.233
 558 1 -5.82017 -1.99807 28.7367
 559 1 -5.37424 -2.99738 29.639
 560 1 -4.60603 -4.08059 29.1427
 561 1 -3.81042 -4.83191 30.045
 562 1 -2.68504 -5.5369 29.5487
 563 1 -1.66186 -5.92494 30.451
 564 1 -0.352012 -6.14352 29.9548
 565 1 0.741734 -6.10873 30.857
 566 1 2.03504 -5.80735 30.3608
 567 1 3.0315 -5.35507 31.263
 568 1 4.1098 -4.57999 30.7668
 569 1 4.85605 -3.77962 31.669
 570 1 5.55386 -2.64978 31.1728
 571 1 5.93539 -1.62414 32.0751
 572 1 6.14563 -0.312935 31.5788
 573 1 5.76747 2.14546 24.0901
 574 1 5.17288 3.33287 23.5939
 575 1 4.50075 4.19642 24.4961
 576 1 3.49564 5.06431 23.9999
 577 1 2.54334 5.6034 24.9021
 578 1 1.28196 6.01858 24.4059
 579 1 0.195636 6.15048 25.3082
 580 1 -1.12846 6.04924 24.8119
 581 1 -2.18209 5.75371 25.7142
 582 1 -3.3657 5.15158 25.2179
 583 1 -4.22496 4.47397 26.1202
 584 1 -5.08644 3.46336 25.624
 585 1 -5.61946 2.50766 26.5262
 586 1 -6.02661 1.24365 26.03
 587 1 -6.1516 0.156518 26.9322
 588 1 -6.04194 -1.1669 26.436
 589 1 -5.73972 -2.21864 27.3382
 590 1 -5.13007 -3.39839 26.842
 591 1 -4.44701 -4.25333 27.7442
 592 1 -3.43095 -5.10836 27.248
 593 1 -2.47187 -5.6353 28.1503
 594 1 -1.2053 -6.0344 27.654
 595 1 -0.117394 -6.15247 28.5563
 596 1 1.2053 -6.0344 28.06
 597 1 2.2551 -5.72549 28.9623
 598 1 3.43095 -5.10836 28.466
 599 1 4.28152 -4.41987 29.3683
 600 1 5.13007 -3.39839 28.8721
 601 1 5.6509 -2.43598 29.7743
 602 1 6.04194 -1.1669 29.2781
 603 1 6.1531 -0.0782654 30.1803
 604 1 6.02661 1.24365 29.6841
 605 1 6.0103 1.3202 21.7894
 606 1 5.58711 2.57893 21.2931
 607 1 5.04198 3.52777 22.1954
 608 1 4.16772 4.52735 21.6992
 609 1 3.2999 5.19397 22.6014
 610 1 2.10874 5.781 22.1052
 611 1 1.05143 6.0631 23.0074
 612 1 -0.273846 6.1475 22.5112
 613 1 -1.3584 6.00179 23.4134
 614 1 -2.61441 5.5706 22.9172
 615 1 -3.55977 5.01944 23.8194
 616 1 -4.55376 4.13884 23.3232
 617 1 -5.21485 3.26681 24.2255
 618 1 -5.79429 2.07193 23.7292
 619 1 -6.06967 1.01285 24.6315
 620 1 -6.14563 -0.312935 24.1352
 621 1 -5.99303 -1.39654 25.0375
 622 1 -5.55386 -2.64978 24.5412
 623 1 -4.9967 -3.59162 25.4435
 624 1 -4.1098 -4.57999 24.9473
 625 1 -3.23358 -5.23552 25.8495
 626 1 -2.03504 -5.80735 25.3533
 627 1 -0.974228 -6.07598 26.2555
 628 1 0.352012 -6.14352 25.7593
 629 1 1.43463 -5.98403 26.6615
 630 1 2.68504 -5.5369 26.1653
 631 1 3.62332 -4.97376 27.0676
 632 1 4.60603 -4.08059 26.5713
 633 1 5.25598 -3.20022 27.4736
 634 1 5.82017 -1.99807 26.9773
 635 1 6.08206 -0.935568 27.8796
 636 1 6.14115 0.391074 27.3833
 637 1 6.13568 0.46915 19.4886
 638 1 5.89216 1.77459 18.9924
 639 1 5.48467 2.79019 19.8947
 640 1 4.75834 3.90191 19.3984
 641 1 3.99197 4.68304 20.3007
 642 1 2.89431 5.43044 19.8044
 643 1 1.88667 5.85723 20.7067
 644 1 0.586117 6.12562 20.2104
 645 1 -0.50816 6.13258 21.1127
 646 1 -1.81202 5.88075 20.6165
 647 1 -2.82501 5.46681 21.5187
 648 1 -3.93209 4.73343 21.0225
 649 1 -4.70833 3.96211 21.9247
 650 1 -5.44874 2.85972 21.4285
 651 1 -5.86911 1.84938 22.3307
 652 1 -6.12922 0.547149 21.8345
 653 1 -6.12922 -0.547149 22.7367
 654 1 -5.86911 -1.84938 22.2405
 655 1 -5.44874 -2.85972 23.1428
 656 1 -4.70833 -3.96211 22.6465
 657 1 -3.93209 -4.73343 23.5488
 658 1 -2.82501 -5.46681 23.0525
 659 1 -1.81202 -5.88075 23.9548
 660 1 -0.50816 -6.13258 23.4585
 661 1 0.586117 -6.12562 24.3608
 662 1 1.88667 -5.85723 23.8646
 663 1 2.89431 -5.43044 24.7668
 664 1 3.99197 -4.68304 24.2706
 665 1 4.75834 -3.90191 25.1728
 666 1 5.48467 -2.79019 24.6766
 667 1 5.89216 -1.77459 25.5788
 668 1 6.13568 -0.46915 25.0826
 669 1 5.82017 1.99807 17.5939
 670 1 5.25598 3.20022 17.0977
 671 1 4.60603 4.08059 17.9999
 672 1 3.62332 4.97376 17.5037
 673 1 2.68504 5.5369 18.4059
 674 1 1.43463 5.98403 17.9097
 675 1 0.352012 6.14352 18.812
 676 1 -0.974228 6.07598 18.3157
 677 1 -2.03504 5.80735 19.218
 678 1 -3.23358 5.23552 18.7217
 679 1 -4.1098 4.57999 19.624
 680 1 -4.9967 3.59162 19.1277
 681 1 -5.55386 2.64978 20.03
 682 1 -5.99303 1.39654 19.5338
 683 1 -6.14563 0.312935 20.436
 684 1 -6.06967 -1.01285 19.9398
 685 1 -5.79429 -2.07193 20.842
 686 1 -5.21485 -3.26681 20.3458
 687 1 -4.55376 -4.13884 21.248
 688 1 -3.55977 -5.01944 20.7518
 689 1 -2.61441 -5.5706 21.654
 690 1 -1.3584 -6.00179 21.1578
 691 1 -0.273846 -6.1475 22.0601
 692 1 1.05143 -6.0631 21.5638
 693 1 2.10874 -5.781 22.4661
 694 1 3.2999 -5.19397 21.9698
 695 1 4.16772 -4.52735 22.8721
 696 1 5.04198 -3.52777 22.3758
 697 1 5.58711 -2.57893 23.2781
 698 1 6.0103 -1.3202 22.7819
 699 1 6.14911 -0.234746 23.6841
 700 1 6.05629 1.08996 23.1879
 701 1 6.04194 1.1669 15.2932
 702 1 5.6509 2.43598 14.7969
 703 1 5.13007 3.39839 15.6992
 704 1 4.28152 4.41987 15.2029
 705 1 3.43095 5.10836 16.1052
 706 1 2.2551 5.72549 15.609
 707 1 1.2053 6.0344 16.5112
 708 1 -0.117394 6.15247 16.015
 709 1 -1.2053 6.0344 16.9172
 710 1 -2.47187 5.6353 16.421
 711 1 -3.43095 5.10836 17.3232
 712 1 -4.44701 4.25333 16.827
 713 1 -5.13007 3.39839 17.7292
 714 1 -5.73972 2.21864 17.233
 715 1 -6.04194 1.1669 18.1353
 716 1 -6.1516 -0.156518 17.639
 717 1 -6.02661 -1.24365 18.5413
 718 1 -5.61946 -2.50766 18.045
 719 1 -5.08644 -3.46336 18.9473
 720 1 -4.22496 -4.47397 18.451
 721 1 -3.3657 -5.15158 19.3533
 722 1 -2.18209 -5.75371 18.8571
 723 1 -1.12846 -6.04924 19.7593
 724 1 0.195636 -6.15048 19.2631
 725 1 1.28196 -6.01858 20.1653
 726 1 2.54334 -5.6034 19.6691
 727 1 3.49564 -5.06431 20.5713
 728 1 4.50075 -4.19642 20.0751
 729 1 5.17288 -3.33287 20.9774
 730 1 5.76747 -2.14546 20.4811
 731 1 6.05629 -1.08996 21.3834
 732 1 6.14911 0.234746 20.8871
 733 1 6.14563 0.312935 12.9924
 734 1 5.93539 1.62414 12.4962
 735 1 5.55386 2.64978 13.3984
 736 1 4.85605 3.77962 12.9022
 737 1 4.1098 4.57999 13.8045
 738 1 3.0315 5.35507 13.3082
 739 1 2.03504 5.80735 14.2105
 740 1 0.741734 6.10873 13.7142
 741 1 -0.352012 6.14352 14.6165
 742 1 -1.66186 5.92494 14.1202
 743 1 -2.68504 5.5369 15.0225
 744 1 -3.81042 4.83191 14.5263
 745 1 -4.60603 4.08059 15.4285
 746 1 -5.37424 2.99738 14.9323
 747 1 -5.82017 1.99807 15.8345
 748 1 -6.11332 0.70287 15.3383
 749 1 -6.14115 -0.391074 16.2405
 750 1 -5.91425 -1.6995 15.7443
 751 1 -5.51971 -2.7202 16.6465
 752 1 -4.80759 -3.84107 16.1503
 753 1 -4.05121 -4.63189 17.0526
 754 1 -2.96314 -5.39319 16.5563
 755 1 -1.96101 -5.83276 17.4586
 756 1 -0.663979 -6.11767 16.9623
 757 1 0.43012 -6.13854 17.8646
 758 1 1.73708 -5.90333 17.3683
 759 1 2.75525 -5.5023 18.2706
 760 1 3.87157 -4.78306 17.7744
 761 1 4.65756 -4.02167 18.6766
 762 1 5.41192 -2.92879 18.1804
 763 1 5.84512 -1.92388 19.0826
 764 1 6.12177 -0.62506 18.5864
 765 1 5.86911 1.84938 11.0977
 766 1 5.33568 3.06549 10.6015
 767 1 4.70833 3.96211 11.5037
 768 1 3.74866 4.87999 11.0075
 769 1 2.82501 5.46681 11.9097
 770 1 1.58637 5.9456 11.4135
 771 1 0.50816 6.13258 12.3157
 772 1 -0.819368 6.0988 11.8195
 773 1 -1.88667 5.85723 12.7218
 774 1 -3.09936 5.31608 12.2255
 775 1 -3.99197 4.68304 13.1278
 776 1 -4.90373 3.71755 12.6315
 777 1 -5.48467 2.79019 13.5338
 778 1 -5.95557 1.54852 13.0375
 779 1 -6.13568 0.46915 13.9398
 780 1 -6.09346 -0.858137 13.4436
 781 1 -5.84512 -1.92388 14.3458
 782 1 -5.29626 -3.13311 13.8496
 783 1 -4.65756 -4.02167 14.7518
 784 1 -3.68629 -4.92727 14.2556
 785 1 -2.75525 -5.5023 15.1578
 786 1 -1.51062 -5.96529 14.6616
 787 1 -0.43012 -6.13854 15.5638
 788 1 0.896871 -6.08788 15.0676
 789 1 1.96101 -5.83276 15.9699
 790 1 3.16673 -5.27623 15.4736
 791 1 4.05121 -4.63189 16.3759
 792 1 4.95061 -3.65488 15.8796
 793 1 5.51971 -2.7202 16.7819
 794 1 5.97478 -1.47265 16.2856
 795 1 6.14115 -0.391074 17.1879
 796 1 6.08206 0.935568 16.6917
 797 1 6.06967 1.01285 8.79696
 798 1 5.71103 2.29146 8.30072
 799 1 5.21485 3.26681 9.20297
 800 1 4.39256 4.30954 8.70673
 801 1 3.55977 5.01944 9.60898
 802 1 2.4 5.66628 9.11274
 803 1 1.3584 6.00179 10.015
 804 1 0.0391335 6.15347 9.51876
 805 1 -1.05143 6.0631 10.421
 806 1 -2.32774 5.69635 9.92477
 807 1 -3.2999 5.19397 10.827
 808 1 -4.33739 4.36506 10.3308
 809 1 -5.04198 3.52777 11.233
 810 1 -5.68143 2.36391 10.7368
 811 1 -6.0103 1.3202 11.639
 812 1 -6.15359 -1.97915e-15 11.1428
 813 1 -6.05629 -1.08996 12.0451
 814 1 -5.68143 -2.36391 11.5488
 815 1 -5.17288 -3.33287 12.4511
 816 1 -4.33739 -4.36506 11.9548
 817 1 -3.49564 -5.06431 12.8571
 818 1 -2.32774 -5.69635 12.3608
 819 1 -1.28196 -6.01858 13.2631
 820 1 0.0391335 -6.15347 12.7669
 821 1 1.12846 -6.04924 13.6691
 822 1 2.4 -5.66628 13.1729
 823 1 3.3657 -5.15158 14.0751
 824 1 4.39256 -4.30954 13.5789
 825 1 5.08644 -3.46336 14.4811
 826 1 5.71103 -2.29146 13.9849
 827 1 6.02661 -1.24365 14.8872
 828 1 6.1531 0.0782654 14.3909
 829 1 6.1516 0.156518 6.49621
 830 1 5.97478 1.47265 5.99997
 831 1 5.61946 2.50766 6.90223
 832 1 4.95061 3.65488 6.40599
 833 1 4.22496 4.47397 7.30824
 834 1 3.16673 5.27623 6.812
 835 1 2.18209 5.75371 7.71425
 836 1 0.896871 6.08788 7.21801
 837 1 -0.195636 6.15048 8.12027
 838 1 -1.51062 5.96529 7.62403
 839 1 -2.54334 5.6034 8.52628
 840 1 -3.68629 4.92727 8.03004
 841 1 -4.50075 4.19642 8.93229
 842 1 -5.29626 3.13311 8.43605
 843 1 -5.76747 2.14546 9.33831
 844 1 -6.09346 0.858137 8.84207
 845 1 -6.14911 -0.234746 9.74432
 846 1 -5.95557 -1.54852 9.24808
 847 1 -5.58711 -2.57893 10.1503
 848 1 -4.90373 -3.71755 9.65409
 849 1 -4.16772 -4.52735 10.5563
 850 1 -3.09936 -5.31608 10.0601
 851 1 -2.10874 -5.781 10.9624
 852 1 -0.819368 -6.0988 10.4661
 853 1 0.273846 -6.1475 11.3684
 854 1 1.58637 -5.9456 10.8721
 855 1 2.61441 -5.5706 11.7744
 856 1 3.74866 -4.87999 11.2781
 857 1 4.55376 -4.13884 12.1804
 858 1 5.33568 -3.06549 11.6842
 859 1 5.79429 -2.07193 12.5864
 860 1 6.10389 -0.780567 12.0902
 861 1 5.91425 1.6995 4.60148
 862 1 5.41192 2.92879 4.10525
 863 1 4.80759 3.84107 5.0075
 864 1 3.87157 4.78306 4.51126
 865 1 2.96314 5.39319 5.41351
 866 1 1.73708 5.90333 4.91727
 867 1 0.663979 6.11767 5.81952
 868 1 -0.663979 6.11767 5.32329
 869 1 -1.73708 5.90333 6.22554
 870 1 -2.96314 5.39319 5.7293
 871 1 -3.87157 4.78306 6.63155
 872 1 -4.80759 3.84107 6.13531
 873 1 -5.41192 2.92879 7.03756
 874 1 -5.91425 1.6995 6.54133
 875 1 -6.12177 0.62506 7.44358
 876 1 -6.11332 -0.70287 6.94734
 877 1 -5.89216 -1.77459 7.84959
 878 1 -5.37424 -2.99738 7.35335
 879 1 -4.75834 -3.90191 8.2556
 880 1 -3.81042 -4.83191 7.75937
 881 1 -2.89431 -5.43044 8.66162
 882 1 -1.66186 -5.92494 8.16538
 883 1 -0.586117 -6.12562 9.06763
 884 1 0.741734 -6.10873 8.57139
 885 1 1.81202 -5.88075 9.47364
 886 1 3.0315 -5.35507 8.97741
 887 1 3.93209 -4.73343 9.87966
 888 1 4.85605 -3.77962 9.38342
 889 1 5.44874 -2.85972 10.2857
 890 1 5.93539 -1.62414 9.78943
 891 1 6.12922 -0.547149 10.6917
 892 1 6.10389 0.780567 10.1954
 893 1 6.09346 0.858137 2.30074
 894 1 5.76747 2.14546 1.8045
 895 1 5.29626 3.13311 2.70676
 896 1 4.50075 4.19642 2.21052
 897 1 3.68629 4.92727 3.11277
 898 1 2.54334 5.6034 2.61653
 899 1 1.51062 5.96529 3.51878
 900 1 0.195636 6.15048 3.02254
 901 1 -0.896871 6.08788 3.9248
 902 1 -2.18209 5.75371 3.42856
 903 1 -3.16673 5.27623 4.33081
 904 1 -4.22496 4.47397 3.83457
 905 1 -4.95061 3.65488 4.73682
 906 1 -5.61946 2.50766 4.24058
 907 1 -5.97478 1.47265 5.14284
 908 1 -6.1516 0.156518 4.6466
 909 1 -6.08206 -0.935568 5.54885
 910 1 -5.73972 -2.21864 5.05261
 911 1 -5.25598 -3.20022 5.95486
 912 1 -4.44701 -4.25333 5.45862
 913 1 -3.62332 -4.97376 6.36088
 914 1 -2.47187 -5.6353 5.86464
 915 1 -1.43463 -5.98403 6.76689
 916 1 -0.117394 -6.15247 6.27065
 917 1 0.974228 -6.07598 7.1729
 918 1 2.2551 -5.72549 6.67666
 919 1 3.23358 -5.23552 7.57892
 920 1 4.28152 -4.41987 7.08268
 921 1 4.9967 -3.59162 7.98493
 922 1 5.6509 -2.43598 7.48869
 923 1 5.99303 -1.39654 8.39094
 924 1 6.1531 -0.0782654 7.8947
 925 1 6.15359 0 0
 926 1 6.0103 1.3202 -0.496238
 927 1 5.68143 2.36391 0.406013
 928 1 5.04198 3.52777 -0.0902252
 929 1 4.33739 4.36506 0.812027
 930 1 3.2999 5.19397 0.315788
 931 1 2.32774 5.69635 1.21804
 932 1 1.05143 6.0631 0.721801
 933 1 -0.0391335 6.15347 1.62405
 934 1 -1.3584 6.00179 1.12781
 935 1 -2.4 5.66628 2.03007
 936 1 -3.55977 5.01944 1.53383
 937 1 -4.39256 4.30954 2.43608
 938 1 -5.21485 3.26681 1.93984
 939 1 -5.71103 2.29146 2.84209
 940 1 -6.06967 1.01285 2.34585
 941 1 -6.1531 -0.0782654 3.24811
 942 1 -5.99303 -1.39654 2.75187