LAMMPS (4 May 2022)
  using 1 OpenMP thread(s) per MPI task
#uniaxial tensile test of CNT_15_8_1.584

##---------------INITIALIZATION-------------------------------

units          metal
dimension 	    3
boundary       p p p
atom_style 	atomic
newton 		on


##---------------ATOM DEFINITION------------------------------

read_data 	CNT_15_8_1.584.dat
Reading data file ...
  orthogonal box = (-50 -50 -0.175293) to (50 50 257.92)
  4 by 4 by 7 MPI processor grid
  reading atoms ...
  4908 atoms
  read_data CPU = 0.063 seconds



##---------------FORCE FIELDS---------------------------------
#Set the formula(s) LAMMPS uses to compute pairwise interactions. In LAMMPS, pair potentials are defined between pairs #of atoms that are within a cutoff distance and the set of active interactions typically changes over time

pair_style 	airebo 3.0

#Specify the pairwise force field coefficients for one or more pairs of atom types. The number and meaning of the coefficients depends on the pair style.

pair_coeff     * * /ascldap/users/bcma/CH.airebo C
Reading airebo potential file /ascldap/users/bcma/CH.airebo with DATE: 2011-10-25


##---------------SETTINGS-------------------------------------

timestep 	0.0005
variable   ts equal 0.0005


##---------------COMPUTES-----stresses in 3 directions and min/max on x and z atom coordinates --------------------------

compute    1 all stress/atom NULL
compute    2 all reduce sum c_1[1] c_1[2] c_1[3]
compute    3 all property/atom x y # true atoms position
compute    4 all reduce min c_3[1] c_3[2]
compute    5 all reduce max c_3[1] c_3[2]


variable   Lx equal lx
variable   Ly equal ly
variable   Lz equal lz
variable   Vol equal vol
variable   thickn equal 3.4
#making the damp parameter timestep dependent
fix		1 all npt temp 300 300 0.05 iso 0 0 0.05 #$(100.0*dt)x 0 0 0.5 y 0 0 0.5 z 0 0 0.5
thermo 	2000
##---------------RELAXATION--------------------------------------

run            50000
Neighbor list info ...
  update every 1 steps, delay 10 steps, check yes
  max neighbors/atom: 2000, page size: 100000
  master list distance cutoff = 12.2
  ghost atom cutoff = 12.2
  binsize = 6.1, bins = 17 17 43
  1 neighbor lists, perpetual/occasional/extra = 1 0 0
  (1) pair airebo, perpetual
      attributes: full, newton on, ghost
      pair build: full/bin/ghost
      stencil: full/ghost/bin/3d
      bin: standard
Per MPI rank memory allocation (min/avg/max) = 3.755 | 3.797 | 3.922 Mbytes
   Step          Temp          E_pair         E_mol          TotEng         Press          Volume    
         0   0             -36288.94       0             -36288.94      -1840.8886      2580952.9    
      2000   9.8353913     -36350.396      0             -36344.158     -71.684871      2475133.3    
      4000   246.98243     -36193.422      0             -36036.766      98.940477      2630517.7    
      6000   395.85463     -36205.269      0             -35954.186      20.630794      2502051.7    
      8000   310.26407     -36161.304      0             -35964.509     -4.6945911      2443286.4    
     10000   308.68381     -36146.643      0             -35950.851     -14.300253      2531391.3    
     12000   285.00732     -36183.428      0             -36002.653     -38.046681      2457939.6    
     14000   302.3026      -36151.791      0             -35960.047     -12.082268      2522154      
     16000   282.09569     -36180.675      0             -36001.747      44.933082      2460698.2    
     18000   301.52386     -36165.016      0             -35973.765      12.486824      2496224.9    
     20000   294.62529     -36172.098      0             -35985.224     -15.517452      2491301.7    
     22000   292.90339     -36175.565      0             -35989.782     -27.194593      2464875.7    
     24000   298.58024     -36166.113      0             -35976.73      -1.1612946      2506368.4    
     26000   295.9868      -36174.534      0             -35986.796      30.784434      2463454.8    
     28000   296.08838     -36173.405      0             -35985.603     -30.569863      2476733      
     30000   301.41355     -36164.146      0             -35972.966     -30.349774      2496546.1    
     32000   295.39329     -36170.181      0             -35982.819     -40.105         2455695.1    
     34000   306.99112     -36165.67       0             -35970.952     -6.9723805      2477433.8    
     36000   310.16678     -36163.972      0             -35967.24       50.111348      2485830.8    
     38000   298.53944     -36166.04       0             -35976.682     -2.6165504      2455485.4    
     40000   311.03811     -36165.511      0             -35968.226      13.125885      2477819.3    
     42000   294.99528     -36169.622      0             -35982.512      24.718912      2490364.3    
     44000   294.27829     -36170.66       0             -35984.005      43.383675      2459372.1    
     46000   301.28212     -36165.793      0             -35974.696      12.051031      2470285.3    
     48000   295.55085     -36163.904      0             -35976.442     -10.519843      2493567.3    
     50000   296.50786     -36167.627      0             -35979.558     -30.189482      2471050.2    
Loop time of 156.326 on 112 procs for 50000 steps with 4908 atoms

Performance: 13.817 ns/day, 1.737 hours/ns, 319.844 timesteps/s
99.8% CPU use with 112 MPI tasks x 1 OpenMP threads

MPI task timing breakdown:
Section |  min time  |  avg time  |  max time  |%varavg| %total
---------------------------------------------------------------
Pair    | 0.03471    | 32.266     | 131.26     | 982.8 | 20.64
Neigh   | 0.0008035  | 0.37474    | 1.5758     | 105.8 |  0.24
Comm    | 0.077853   | 3.0818     | 16.715     | 299.2 |  1.97
Output  | 0.0023105  | 0.0024105  | 0.0027362  |   0.1 |  0.00
Modify  | 10.741     | 119.2      | 154.85     | 563.5 | 76.25
Other   |            | 1.397      |            |       |  0.89

Nlocal:        43.8214 ave         177 max           0 min
Histogram: 84 0 0 0 0 0 0 0 0 28
Nghost:        249.357 ave        1003 max           0 min
Histogram: 84 0 0 0 0 0 0 0 0 28
Neighs:              0 ave           0 max           0 min
Histogram: 112 0 0 0 0 0 0 0 0 0
FullNghs:      8794.05 ave       35598 max           0 min
Histogram: 84 0 0 0 0 0 0 0 0 28

Total # of neighbors = 984934
Ave neighs/atom = 200.6793
Neighbor list builds = 427
Dangerous builds = 3


##---------------DEFORMATION--------------------------------------
unfix              1
reset_timestep     0
fix		1 all npt temp 300 300 0.05 x 0 0 0.05 y 0 0 0.05 #$(100.0*dt)
fix        2 all ave/time 1 100 100 c_2[1] c_2[2] c_2[3]
fix        3 all ave/time 1 100 100 v_Lx v_Ly v_Lz v_Vol
fix        4 all  ave/time 1 100 100 c_4[1] c_4[2]
fix        5 all ave/time 1 100 100 c_5[1] c_5[2]
variable   srate equal 1.0e9
variable   srate1 equal "v_srate / 1.0e12"
fix		6 all deform 1 z erate ${srate1} units box remap x
fix		6 all deform 1 z erate 0.001 units box remap x
run            100
Per MPI rank memory allocation (min/avg/max) = 3.755 | 3.798 | 3.923 Mbytes
   Step          Temp          E_pair         E_mol          TotEng         Press          Volume    
         0   296.50786     -36167.627      0             -35979.558     -30.189482      2471050.2    
       100   303.98782     -36170.452      0             -35977.639      65.987629      2481544.4    
Loop time of 0.383231 on 112 procs for 100 steps with 4908 atoms

Performance: 11.273 ns/day, 2.129 hours/ns, 260.939 timesteps/s
99.8% CPU use with 112 MPI tasks x 1 OpenMP threads

MPI task timing breakdown:
Section |  min time  |  avg time  |  max time  |%varavg| %total
---------------------------------------------------------------
Pair    | 8.0081e-05 | 0.077313   | 0.31866    |  48.1 | 20.17
Neigh   | 0          | 0          | 0          |   0.0 |  0.00
Comm    | 0.00012438 | 0.0064164  | 0.036254   |  14.0 |  1.67
Output  | 7.7418e-05 | 8.3115e-05 | 0.00014443 |   0.0 |  0.02
Modify  | 0.042769   | 0.29731    | 0.38104    |  26.5 | 77.58
Other   |            | 0.00211    |            |       |  0.55

Nlocal:        43.8214 ave         179 max           0 min
Histogram: 84 0 0 0 0 0 0 0 0 28
Nghost:        249.321 ave        1001 max           0 min
Histogram: 84 0 0 0 0 0 0 0 0 28
Neighs:              0 ave           0 max           0 min
Histogram: 112 0 0 0 0 0 0 0 0 0
FullNghs:      8789.61 ave       35833 max           0 min
Histogram: 84 0 0 0 0 0 0 0 0 28

Total # of neighbors = 984436
Ave neighs/atom = 200.57783
Neighbor list builds = 0
Dangerous builds = 0
##---------------THERMO-OUTPUTS--------------------------------------
variable cntdiameter equal ((f_5[1]-f_4[1])+(f_5[2]-f_4[2]))/2
#actual volume of cnt
variable   CorVol equal 3.14*v_cntdiameter*v_thickn*f_3[3]
#convertion factor of stress from barr to GPA
variable   ConvoFac equal 1/1.0e4
variable   sigmaxx equal f_2[1]*v_ConvoFac/v_CorVol
variable   sigmayy equal f_2[2]*v_ConvoFac/v_CorVol
variable   sigmazz equal f_2[3]*v_ConvoFac/v_CorVol
variable   StrainPerTs equal v_srate1*v_ts
variable   strain equal v_StrainPerTs*step
thermo 	100
thermo_style custom step temp v_strain v_sigmaxx v_sigmayy v_sigmazz pe ke lx ly lz vol v_cntdiameter v_CorVol
thermo_modify lost warn


##---------------DEFORMATION--------------------------------------
dump           1 all atom 5000 /ascldap/users/bcma/FirstCNTRun/CNT_15_8_1.584/CNT_15_8_1.584.lammpstrj
run            1000000
Per MPI rank memory allocation (min/avg/max) = 4.755 | 4.798 | 4.923 Mbytes
   Step          Temp         v_strain      v_sigmaxx      v_sigmayy      v_sigmazz        PotEng         KinEng           Lx             Ly             Lz           Volume     v_cntdiameter     v_CorVol   
       100   303.98782      5e-05         -0.014584289   -0.010946712   -0.62280375    -36170.452      192.81325      98.638694      98.89457       254.39132      2481544.4      16.358436      44426.457    
       200   302.33835      0.0001         0.011848792    0.0071503999  -0.54539643    -36165.302      191.76703      99.03883       99.301675      254.40404      2501992.9      16.363349      44442.021    
       300   304.38396      0.00015       -0.0016468338  -0.0034005291  -0.5503864     -36163.153      193.06452      99.342879      99.768953      254.41676      2521609.8      16.492027      44793.743    
       400   305.48782      0.0002        -0.0013312387  -0.0052583103  -0.47974524    -36162.659      193.76467      99.638775      100.16226      254.42948      2539217.6      16.445237      44668.891    
       500   300.18286      0.00025        0.0027637231  -0.0010216601  -0.42704129    -36165.779      190.39985      99.994525      100.47929      254.4422       2556477.2      16.484612      44778.081    
       600   299.22157      0.0003         0.022244522    0.011443272   -0.34568612    -36169.107      189.79012      100.3249       100.91934      254.45492      2576285.3      16.419252      44602.768    
       700   293.9663       0.00035       -0.024828006   -0.0061997893  -0.27453841    -36166.683      186.45681      100.62482      101.39708      254.46764      2596349.3      16.460612      44717.358    
       800   301.52974      0.0004        -0.0068220952   0.00050641802 -0.30359024    -36168.072      191.25414      100.94386      101.62475      254.48036      2610559.9      16.408273      44577.4      
       900   303.3357       0.00045        0.011375212    0.011304886   -0.22258022    -36166.422      192.39963      101.31894      102.00917      254.49308      2630303.1      16.323106      44348.238    
      1000   301.55765      0.0005        -0.0018093267  -0.004038371   -0.20023185    -36165.565      191.27185      101.80777      102.48437      254.5058       2655438.4      16.414996      44600.124    
      1100   296.91002      0.00055       -0.0052842716  -0.010148264   -0.085734753   -36169.837      188.32395      102.04637      102.81801      254.51852      2670460.2      16.38272       44514.655    
      1200   297.25954      0.0006        -2.2970077e-05  0.0078120859  -0.057501202   -36170.102      188.54564      102.26704      103.2217       254.53124      2686876.9      16.405311      44578.265    
      1300   297.9209       0.00065        0.0047988861   0.0075130723   0.0069925342  -36167.216      188.96513      102.71788      103.59292      254.54396      2708562.9      16.330681      44377.69     
      1400   301.10636      0.0007        -0.0022280497  -0.013052734    0.025452253   -36165.796      190.9856       103.09141      104.01966      254.55668      2729747        16.301639      44300.985    
      1500   300.76642      0.00075        0.0064425044  -0.0076984224   0.086105829   -36166.001      190.76999      103.32378      104.30682      254.5694       2743589.9      16.377057      44508.163    
      1600   295.477        0.0008         0.0048522099   0.017954626    0.13078049    -36165.781      187.41501      103.54346      104.90815      254.58212      2765411.8      16.328621      44378.744    
      1700   294.23872      0.00085       -0.010466117   -0.0057471071   0.19909019    -36170.47       186.6296       103.94891      105.3098       254.59483      2787008.7      16.293657      44285.931    
      1800   290.81431      0.0009        -0.0013113505  -0.0048045536   0.22567814    -36172.057      184.45756      104.16106      105.7888       254.60755      2805539.4      16.35763       44462.028    
      1900   292.44998      0.00095        0.0051123837   0.0069889571   0.29439394    -36169.656      185.49504      104.49854      106.07497      254.62027      2822384.1      16.361283      44474.181    
      2000   295.11046      0.001          0.0033958633   0.0066489551   0.28895187    -36167.185      187.18252      104.82017      106.63991      254.63299      2846291.2      16.426717      44654.278    
      2100   305.95708      0.00105       -0.0094086451  -0.012621163    0.36569671    -36170.248      194.06231      105.27139      106.9756       254.64571      2867685        16.325054      44380.133    
      2200   301.65618      0.0011         0.0038477747  -0.0038616865   0.42914702    -36166.223      191.33434      105.40384      107.3951       254.65843      2882696.6      16.21907       44094.217    
      2300   296.96728      0.00115        0.0094765669   0.015377128    0.45390742    -36165.024      188.36027      105.86758      107.78373      254.67115      2906002.3      16.181473      43994.199    
      2400   295.31818      0.0012        -0.0086876321  -0.0078165407   0.53505244    -36169.005      187.31427      106.1646       108.30712      254.68387      2928452.2      16.292387      44297.964    
      2500   296.20621      0.00125       -0.0031442234  -0.0090309131   0.56630439    -36170.699      187.87754      106.53484      108.63577      254.69659      2947729.8      16.302466      44327.582    
      2600   299.62436      0.0013         0.010089839    0.021437188    0.62826548    -36169.949      190.0456       106.74958      109.05235      254.70931      2965145.6      16.265193      44228.442    
      2700   298.98529      0.00135        0.0019403231  -0.0058709946   0.66617509    -36167.735      189.64025      107.34424      109.46876      254.72203      2993197.9      16.33625       44423.88     
      2800   300.43295      0.0014        -0.011179905   -0.012532342    0.69720861    -36167.734      190.55847      107.42616      109.92568      254.73475      3008135.7      16.375666      44533.289    
      2900   297.90694      0.00145       -0.0038089881   0.0077586434   0.73731303    -36165.32       188.95628      107.73288      110.39338      254.74747      3029710.6      16.327132      44403.521    
      3000   304.28359      0.0015         0.011780975    0.0051740655   0.77574857    -36167.481      193.00085      108.14682      110.7829       254.76019      3052235.5      16.435252      44699.795    
      3100   304.18913      0.00155       -0.0063507233  -0.0060693817   0.83973802    -36165.961      192.94094      108.63006      111.15658      254.77291      3076369        16.428768      44684.394    
      3200   300.49677      0.0016         0.0039743429  -0.013530633    0.87114099    -36164.362      190.59895      108.98155      111.45994      254.78563      3094900.9      16.477479      44819.119    
      3300   294.35238      0.00165        1.6041103e-06  0.013070116    0.91816424    -36165.491      186.70169      109.33684      111.93835      254.79835      3118473        16.323465      44402.415    
      3400   294.87551      0.0017        -0.0016289913  -0.0066525395   0.98499991    -36167.537      187.0335       109.77133      112.31877      254.81107      3141662.5      16.321956      44400.525    
      3500   296.93879      0.00175       -0.001042381    0.0031852676   1.0289235     -36167.756      188.34219      109.97474      112.7993       254.82379      3161107.6      16.284178      44299.968    
      3600   300.73163      0.0018        -0.0024789213   0.023406855    1.0734929     -36164.953      190.74792      110.3609       113.23406      254.83651      3184593.2      16.266589      44254.329    
      3700   303.62883      0.00185       -0.0051790456  -0.009581448    1.1008468     -36165.727      192.58555      110.79739      113.59406      254.84923      3207513.2      16.343906      44466.895    
      3800   302.49444      0.0019         0.011842742   -0.016542073    1.1977368     -36166.932      191.86603      111.1191       114.01723      254.86195      3228971.3      16.374934      44553.537    
      3900   296.88551      0.00195        0.0013918195   0.0012087579   1.1885633     -36164.616      188.3084       111.3178       114.53356      254.87467      3249556.1      16.313825      44389.483    
      4000   305.17837      0.002         -0.0030587346   0.0081633055   1.2845701     -36170.669      193.5684       111.65206      115.09582      254.88738      3275477.8      16.28198       44305.044    
      4100   295.80495      0.00205       -0.017506764    0.00073449779  1.3096035     -36168.316      187.62303      111.97453      115.50501      254.9001       3296781        16.308831      44380.325    
      4200   291.713        0.0021         0.014348962    0.0068760045   1.371108      -36169.271      185.02758      112.40985      115.76185      254.91282      3317122.6      16.402349      44637.036    
      4300   297.83161      0.00215        0.0032252677  -0.010252495    1.3464109     -36169.352      188.9085       112.74361      116.32103      254.92554      3343209.1      16.398224      44628.037    
      4400   299.61324      0.0022        -0.0038376685  -0.0058905226   1.4609818     -36167.248      190.03855      113.01329      116.74964      254.93826      3363721.8      16.410848      44664.623    
      4500   305.33944      0.00225        0.0077679822  -0.00013481819  1.4829182     -36169.206      193.67055      113.33377      117.31078      254.95098      3389642.9      16.431307      44722.536    
      4600   303.39076      0.0023        -0.0050323286   0.0020129217   1.5400488     -36167.667      192.43455      113.57779      117.8338       254.9637       3412256.3      16.335982      44465.3      
      4700   296.89049      0.00235       -0.0089113666   0.00079262165  1.553241      -36166.545      188.31156      113.92852      118.4081       254.97642      3439647.1      16.284714      44327.963    
      4800   298.87971      0.0024         0.00066222222 -0.00081827066  1.615688      -36172.033      189.57328      114.25983      118.7046       254.98914      3458460.3      16.355194      44522.034    
      4900   297.93382      0.00245        0.012502792   -0.0016399295   1.6762049     -36171.412      188.97332      114.60705      119.1969       255.00186      3483530.8      16.31311       44409.69     
      5000   298.42675      0.0025        -0.0070940152  -0.0014019535   1.6562868     -36164.657      189.28598      114.85927      119.8024       255.01458      3509106.5      16.360445      44540.773    
      5100   303.19081      0.00255       -0.0089152952   0.0077455109   1.7925965     -36165.771      192.30772      115.22681      120.11225      255.0273       3529616.3      16.398932      44647.778    
      5200   297.56182      0.0026         0.0035887872   0.0071893638   1.8032573     -36163.417      188.73737      115.66462      120.49368      255.04002      3554456.2      16.410638      44681.878    
      5300   297.89336      0.00265        0.0052205362  -0.010265591    1.8438132     -36167.116      188.94766      116.2354       120.82606      255.05274      3582028.3      16.446851      44782.71     
      5400   296.97397      0.0027         0.0032312632  -0.011469738    1.857567      -36169.339      188.36451      116.39243      121.33145      255.06546      3602050.2      16.433015      44747.268    
      5500   304.21306      0.00275        0.00052776179  0.010608807    1.9382525     -36171.529      192.95612      116.76554      121.8064       255.07818      3627923.3      16.356569      44541.325    
      5600   294.75243      0.0028        -0.0063904534  -0.00062112666  1.9710077     -36161.396      186.95543      117.12128      122.37338      255.0909       3656097.1      16.400438      44663.014    
      5700   298.96104      0.00285       -0.0076898996   0.002617546    1.994249      -36164.296      189.62487      117.5997       122.62751      255.10362      3678838.7      16.336667      44491.568    
      5800   300.14466      0.0029         0.0076016574  -0.010800213    2.0557522     -36166.812      190.37561      117.94992      123.1696       255.11634      3706290.3      16.309799      44420.609    
      5900   296.16655      0.00295       -0.0034576365   0.0090189642   2.0967882     -36166.509      187.85238      118.15354      123.71982      255.12906      3729459.8      16.275298      44328.854    
      6000   298.98437      0.003          0.001253136   -0.0067659982   2.1898991     -36169.461      189.63967      118.55331      124.14027      255.14178      3754982.8      16.275148      44330.656    
      6100   296.05586      0.00305        0.010367737   -0.0017098397   2.227011      -36165.685      187.78217      118.81763      124.70274      255.1545       3780594.5      16.301637      44405.022    
      6200   303.31084      0.0031        -0.0041018726   0.0017588194   2.2442793     -36165.495      192.38386      119.07785      125.25207      255.16722      3805754.3      16.290445      44376.746    
      6300   301.28362      0.00315       -0.0087087652   0.0098366727   2.2900111     -36164.134      191.09804      119.35853      125.82028      255.17993      3832221.5      16.276562      44341.138    
      6400   301.40522      0.0032         0.011892603   -0.0040195186   2.3462432     -36167.747      191.17516      119.77911      126.18504      255.19265      3857066.4      16.355585      44558.635    
      6500   298.43272      0.00325        0.0032620432   0.0017749112   2.4237221     -36169.014      189.28976      119.96234      126.83708      255.20537      3883121.6      16.383106      44635.837    
      6600   292.20026      0.0033        -0.0093890981  -0.005515998    2.4028622     -36164.408      185.33664      120.31188      127.40735      255.21809      3912140.7      16.327964      44487.82     
      6700   302.63527      0.00335       -0.0020723937   0.01048384     2.4908273     -36163.637      191.95536      120.45482      127.95802      255.23081      3933913.4      16.304682      44426.6      
      6800   304.62273      0.0034        -0.0015407364   0.0087968585   2.5061775     -36164.472      193.21597      121.05755      128.36085      255.24353      3966242.1      16.389504      44659.946    
      6900   299.96637      0.00345        0.0015491463  -0.014129349    2.5546349     -36165.738      190.26253      121.35557      128.86188      255.25625      3991724.6      16.302014      44423.756    
      7000   296.66478      0.0035         0.0064125471  -0.0052870029   2.6366386     -36166.896      188.1684       121.85986      129.22025      255.26897      4019659.7      16.275933      44354.896    
      7100   300.99574      0.00355        0.0023684318   0.004444911    2.6399862     -36168.939      190.91544      122.10038      129.73116      255.28169      4043719        16.289377      44393.745    
      7200   303.24194      0.0036        -0.013366249    0.016218575    2.7461662     -36166.992      192.34015      122.75169      130.06249      255.29441      4075874.7      16.263015      44324.109    
      7300   303.4225       0.00365       -0.0028189729  -0.0086458333   2.7368762     -36162.628      192.45468      123.28866      130.2564       255.30713      4100012.2      16.22145       44213.027    
      7400   306.27165      0.0037         0.012426714   -0.0063827187   2.7732626     -36161.522      194.26184      123.80075      130.59153      255.31985      4127840.2      16.256756      44311.465    
      7500   302.87715      0.00375       -0.00068987439 -0.0016328043   2.8084139     -36164.577      192.10878      124.22299      131.0687       255.33257      4157259.8      16.288155      44399.262    
      7600   299.9721       0.0038        -0.010169544    0.0040909528   2.8552414     -36167.308      190.26616      124.58123      131.48915      255.34529      4182831.6      16.325019      44501.966    
      7700   297.18279      0.00385        0.00110385     0.019949815    2.9335702     -36166.37       188.49696      125.01135      131.8404       255.35801      4208695        16.267633      44347.741    
      7800   297.74951      0.0039         0.010688819   -0.015151427    2.989845      -36164.2        188.85642      125.56337      132.30385      255.37073      4242350.3      16.303066      44446.549    
      7900   304.0255       0.00395       -0.0017639281  -0.016545692    3.0237687     -36164.883      192.83715      125.83559      132.84835      255.38345      4269258        16.303382      44449.624    
      8000   301.02207      0.004          0.0066452728   0.00030512455  3.0619483     -36162.675      190.93214      125.96991      133.5405       255.39617      4296296.2      16.343789      44562.01     
      8100   301.01561      0.00405       -0.0060222836   0.013503061    3.0957295     -36168.843      190.92804      126.20688      134.24886      255.40889      4327426        16.291953      44422.888    
      8200   295.12534      0.0041        -0.0086515738  -0.0047238507   3.1448274     -36167.448      187.19196      126.44825      134.88287      255.42161      4356395.2      16.290743      44421.802    
      8300   299.67708      0.00415        0.0088462181  -0.007823283    3.1856981     -36167.78       190.07904      126.73396      135.4292       255.43433      4384141.7      16.349394      44583.951    
      8400   301.97072      0.0042        -0.00082747823  0.0095898663   3.196307      -36165.289      191.53385      126.8768       136.1593       255.44705      4412964        16.338901      44557.556    
      8500   302.17415      0.00425       -0.0023986491   0.0050081196   3.2863221     -36163.999      191.66288      127.29704      136.69468      255.45977      4445211.2      16.393405      44708.419    
      8600   300.76231      0.0043        -0.0036779414  -0.012154581    3.3123694     -36165.125      190.76738      127.54359      137.27226      255.47248      4472862.4      16.414042      44766.931    
      8700   300.55085      0.00435        0.013718979    0.011592714    3.3916833     -36167.111      190.63325      127.7662       137.75032      255.4852       4496497.2      16.407043      44750.071    
      8800   300.68942      0.0044        -0.0010313923   0.0021712788   3.398377      -36166.765      190.72114      128.19136      138.41466      255.49792      4533443.8      16.415913      44776.491    
      8900   298.18977      0.00445       -0.0097313415  -0.010165488    3.5094777     -36163.861      189.13567      128.5487       138.85542      255.51064      4560784.4      16.415594      44777.851    
      9000   301.54777      0.0045         0.0022628694  -0.00017262751  3.4754336     -36163.259      191.26558      128.9493       139.30275      255.52336      4589964.1      16.412828      44772.536    
      9100   304.25066      0.00455        0.010436809    0.011618133    3.5899309     -36163.603      192.97997      129.5271       139.69408      255.53608      4623713.2      16.332208      44554.83     
      9200   298.092        0.0046        -0.0061603278  -0.02494799     3.5506016     -36165.154      189.07365      130.01585      140.14834      255.5488       4656483.9      16.402324      44748.337    
      9300   297.07806      0.00465       -0.0029788887   0.013182267    3.6284401     -36167.016      188.43053      130.22977      140.51282      255.56152      4676508        16.426633      44816.886    
      9400   297.22283      0.0047         0.0011074824   0.0051881366   3.7014182     -36165.188      188.52236      130.98087      140.86311      255.57424      4715440.1      16.349258      44608.002    
      9500   300.07416      0.00475       -0.00074748798 -0.0075883174   3.7230505     -36163.833      190.3309       131.45644      141.26648      255.58696      4746348.9      16.314079      44514.234    
      9600   299.00339      0.0048        -0.0094365352   0.0039782337   3.8188422     -36161.623      189.65173      131.90236      141.7032       255.59968      4777410.1      16.352968      44622.565    
      9700   306.79385      0.00485        0.013046649    0.016482253    3.8709466     -36167.129      194.59306      132.34004      141.97433      255.6124       4802672.9      16.230995      44291.942    
      9800   302.95876      0.0049        -0.0043551037  -0.012282548    3.9340335     -36168.776      192.16054      132.90672      142.505        255.62512      4841506.9      16.265363      44387.934    
      9900   292.17273      0.00495       -0.00076960262 -0.013661005    3.9334976     -36164.235      185.31918      133.20985      143.05556      255.63784      4871539.5      16.248837      44345.041    
     10000   293.05045      0.005          0.0045428026   0.012281287    3.9913103     -36162.413      185.8759       133.53157      143.60042      255.65056      4902147.8      16.268233      44400.185    
     10100   300.47918      0.00505       -0.0023780553   0.011124605    4.0162842     -36162.636      190.58779      133.84012      144.26212      255.66328      4936361.8      16.304592      44501.633    
     10200   302.80306      0.0051        -0.0076978563  -0.011238785    4.1114861     -36163.144      192.06178      134.13344      145.00117      255.676        4972771.8      16.30263       44498.492    
     10300   305.42295      0.00515        0.0071344742  -0.0082218641   4.1315568     -36165.783      193.72352      134.26697      145.55472      255.68872      4996973.4      16.2881        44461.043    
     10400   298.24914      0.0052         0.011735956    0.0093495389   4.2116573     -36165.184      189.17333      134.44996      146.44437      255.70144      5034618.1      16.284053      44452.207    
     10500   300.82785      0.00525       -0.011314728   -0.0060801519   4.2463803     -36168.258      190.80895      134.61964      147.21699      255.71416      5067819.3      16.31673       44543.626    
     10600   297.86412      0.0053        -0.0080103205   0.007067377    4.2804876     -36165.336      188.92912      134.79076      147.88911      255.72688      5097681.4      16.323535      44564.417    
     10700   299.35306      0.00535        0.0080509626  -0.0034682013   4.3108913     -36163.953      189.87352      135.13947      148.47073      255.7396       5131224.5      16.332682      44591.608    
     10800   303.253        0.0054         0.0057320391  -0.0027008537   4.3943471     -36163.787      192.34717      135.54829      149.08897      255.75232      5168435.8      16.410389      44805.994    
     10900   302.50367      0.00545        0.0012594395  -0.011177233    4.3846053     -36162.672      191.87188      135.77871      149.63358      255.76504      5196392        16.393863      44763.096    
     11000   299.39951      0.0055         0.0016250165   0.012852087    4.4337263     -36164.394      189.90298      136.13958      150.25258      255.77775      5232016.9      16.378382      44723.052    
     11100   297.39428      0.00555       -0.011932827    0.0030709652   4.4706858     -36166.867      188.63111      136.66781      150.63686      255.79047      5266012.2      16.404367      44796.234    
     11200   294.42527      0.0056        -0.0040965066  -0.0034538813   4.5086516     -36162.715      186.74792      137.12803      151.08707      255.80319      5299800.4      16.453357      44932.248    
     11300   299.21587      0.00565        0.0038708784   0.019915976    4.5389529     -36162.576      189.7865       137.68395      151.34701      255.81591      5330705.7      16.364919      44692.955    
     11400   305.71586      0.0057         0.0054695899  -0.0084591454   4.5959595     -36166.582      193.90932      138.47878      151.62107      255.82863      5371455.1      16.370501      44710.422    
     11500   299.42991      0.00575       -0.0082513889  -0.0078551692   4.6954349     -36163.214      189.92226      139.19435      151.82791      255.84135      5406845.4      16.378815      44735.353    
     11600   295.79767      0.0058         0.0049017447  -0.0052129408   4.7126163     -36160.391      187.61841      139.71039      152.06937      255.85407      5435791.5      16.417175      44842.355    
     11700   306.73722      0.00585        0.0079586765   0.018851536    4.7821344     -36161.85       194.55714      140.23106      152.55368      255.86679      5473698.2      16.382337      44749.424    
     11800   303.52348      0.0059        -0.016577979   -0.011762713    4.7970856     -36160.083      192.51873      140.96553      152.99411      255.87951      5518526.9      16.286414      44489.615    
     11900   300.82716      0.00595        0.0033806865  -0.0028511945   4.9089886     -36163.451      190.80851      141.26908      153.20746      255.89223      5538397.3      16.28151       44478.431    
     12000   299.79881      0.006          0.01030345     0.0036221459   4.9240415     -36163.938      190.15625      141.70488      153.89224      255.90495      5580591.3      16.297889      44525.389    
     12100   301.21626      0.00605        0.0022458734   0.0020560108   4.9601412     -36165.297      191.05531      141.93762      154.75543      255.91767      5621389.6      16.296647      44524.207    
     12200   298.03533      0.0061        -0.021331415   -0.006783359    5.005788      -36163.833      189.03771      142.07325      155.39382      255.93039      5650253.1      16.281631      44485.392    
     12300   300.43122      0.00615        0.018950167    0.0049375905   5.0810172     -36162.414      190.55738      142.16093      156.15631      255.94311      5681764.4      16.257678      44422.154    
     12400   302.52784      0.0062         0.00058674895 -0.008541406    5.1180612     -36159.615      191.88722      142.29419      157.14521      255.95583      5723390.2      16.272532      44464.951    
     12500   306.4695       0.00625       -0.0026974234  -0.0044206511   5.1838261     -36162.069      194.38733      142.41588      157.96474      255.96855      5758444.4      16.269277      44458.266    
     12600   296.97219      0.0063        -0.0039685155   0.01079086     5.1854415     -36161.18       188.36338      142.46601      158.82263      255.98127      5792043.7      16.281375      44493.537    
     12700   303.06408      0.00635        0.010975133    0.016728624    5.2697852     -36167.652      192.22734      142.88807      159.58872      255.99399      5837513.8      16.268838      44461.484    
     12800   300.03339      0.0064        -0.013914711   -0.023438504    5.2584958     -36164.942      190.30504      143.09051      160.41767      256.00671      5876440.8      16.288965      44518.704    
     12900   298.84041      0.00645        0.006185401    0.0010480438   5.3215609     -36161.178      189.54836      143.37525      160.87677      256.01943      5905279.3      16.363556      44724.786    
     13000   302.91496      0.0065         0.014726682    0.007161454    5.3068697     -36160.705      192.13276      143.74319      161.56837      256.03215      5946180.8      16.366685      44735.56     
     13100   304.30948      0.00655       -0.012308121   -0.0052447411   5.385531      -36160.635      193.01727      144.20439      162.33059      256.04487      5993698.9      16.366157      44736.34     
     13200   297.26076      0.0066        -0.010340503   -0.0016421541   5.4017623     -36161.699      188.54642      144.55254      162.55019      256.05759      6016596.1      16.394053      44814.819    
     13300   297.29861      0.00665        0.0054650716   0.017062971    5.4429556     -36164.723      188.57042      145.17308      162.93491      256.0703       6057026.1      16.47372       45034.835    
     13400   302.038        0.0067        -0.0032085319  -0.01448819     5.4858001     -36165.768      191.57652      145.90632      163.24011      256.08302      6099325        16.412693      44870.232    
     13500   298.09727      0.00675       -0.0030476736   3.5919811e-05  5.5813276     -36159.094      189.077        146.52448      163.46152      256.09574      6133778.6      16.388488      44806.282    
     13600   299.82476      0.0068         0.020944697    0.007972464    5.5886871     -36158.036      190.17271      147.18417      163.63498      256.10846      6168238.8      16.310835      44596.195    
     13700   301.66096      0.00685       -0.0031487661   0.0012314306   5.7001936     -36160.214      191.33737      148.04838      164.16302      256.12118      6224787.1      16.340287      44678.938    
     13800   303.45412      0.0069        -0.022701465   -0.012574293    5.6656816     -36162.807      192.47474      148.51607      164.33311      256.1339       6251231.6      16.374335      44774.261    
     13900   300.93276      0.00695        0.013353798    0.01163239     5.7731702     -36162.385      190.87549      149.07747      164.80842      256.14662      6293323.4      16.360671      44739.118    
     14000   299.44666      0.007          0.0028866343  -0.0027983319   5.7926163     -36163.835      189.93289      149.64802      165.30209      256.15934      6336646.7      16.276184      44510.293    
     14100   294.17114      0.00705       -0.0018517317  -0.012842113    5.8781494     -36161.085      186.58673      150.01075      165.92652      256.17206      6376317.8      16.250712      44442.843    
     14200   301.5442       0.0071         0.010810825    0.0042044219   5.9192179     -36159.705      191.26332      150.02565      166.45265      256.18478      6397489.1      16.250771      44445.212    
     14300   303.21563      0.00715       -0.0034695331   0.011080172    5.9942445     -36157.125      192.32347      150.43952      167.59388      256.1975       6459441.7      16.258537      44468.659    
     14400   308.79845      0.0072        -0.015720194   -0.012057817    5.9794533     -36163.856      195.86454      150.55868      168.28641      256.21022      6491592.9      16.309901      44611.358    
     14500   300.09619      0.00725        0.0082524575  -0.00097114617  6.0271527     -36162.837      190.34487      150.79164      169.03185      256.22294      6530761.6      16.343779      44706.242    
     14600   293.78165      0.0073         0.014610483    0.012742105    6.0079421     -36160.313      186.33969      150.94163      170.02646      256.23566      6576050.2      16.384764      44820.576    
     14700   297.07715      0.00735       -0.0139764     -0.01641833     6.115754      -36161.179      188.42995      151.14061      171.05868      256.24838      6625023.1      16.398708      44860.947    
     14800   300.47653      0.0074         0.0024583258   0.0014172321   6.1146193     -36158.069      190.58611      151.07714      171.68114      256.2611       6646668.7      16.349632      44728.912    
     14900   305.13615      0.00745        0.0045657971   0.0071422826   6.2268779     -36159.844      193.54161      151.46401      172.68176      256.27382      6702860        16.288705      44564.441    
     15000   298.29083      0.0075        -0.007705672   -0.0044542826   6.2069518     -36158.141      189.19977      151.67321      173.24605      256.28654      6734386        16.348877      44731.288    
     15100   297.89801      0.00755        0.0058466742  -0.003731223    6.32811       -36159.337      188.95061      152.08437      173.98801      256.29926      6781898.2      16.245004      44449.292    
     15200   302.64005      0.0076        -0.00031298688  0.021577001    6.3727733     -36162.863      191.95839      152.50339      174.50367      256.31198      6821077.4      16.245092      44451.739    
     15300   298.26265      0.00765       -0.01243815    -0.0091135014   6.3493645     -36161.986      189.18189      153.28797      174.99926      256.3247       6875982        16.289986      44576.796    
     15400   297.85128      0.0077         0.0043666633  -0.0051078017   6.4549529     -36165.606      188.92097      153.68021      175.15178      256.33742      6899926.9      16.279025      44549.013    
     15500   289.97665      0.00775        0.0055588732   0.003561462    6.4697105     -36163.253      183.92626      154.37353      175.69556      256.35014      6952919.1      16.334235      44702.317    
     15600   293.6615       0.0078        -0.0059996923   0.0013066168   6.5848469     -36160.019      186.26348      155.02786      175.87743      256.36285      6989964.3      16.262795      44509.014    
     15700   298.48836      0.00785       -0.0070191256   0.00028386015  6.5698091     -36159.4        189.32506      155.81781      176.0105       256.37557      7031246.7      16.26444       44515.724    
     15800   304.48518      0.0079         0.017221032    0.012020637    6.6302236     -36160.901      193.12872      156.49887      176.25964      256.38829      7072325.9      16.313957      44653.467    
     15900   300.48714      0.00795       -0.0044753397  -0.016438253    6.6475966     -36157.54       190.59284      157.36318      176.63128      256.40101      7126733        16.319975      44672.155    
     16000   303.96807      0.008          0.0019956873  -0.0083254304   6.6414623     -36160.806      192.80073      157.79433      177.03056      256.41373      7162768.5      16.43182       44980.537    
     16100   297.25634      0.00805        0.0040344573   0.009144335    6.7032092     -36161.617      188.54361      158.28709      177.58465      256.42645      7207982.8      16.358382      44781.729    
     16200   300.32854      0.0081        -0.00062891295  0.0020815807   6.8268352     -36164.441      190.49225      158.66232      178.40007      256.43917      7258605.7      16.295527      44611.872    
     16300   300.48847      0.00815       -0.022262041    0.003939112    6.8141255     -36161.417      190.59369      158.86195      179.09318      256.45189      7296336.3      16.284271      44583.271    
     16400   299.20015      0.0082         0.014619872    0.0039780701   6.8913237     -36156.742      189.77653      159.22763      179.63522      256.46461      7335629        16.281992      44579.242    
     16500   300.51411      0.00825        0.0045000409  -0.0083870985   6.8890055     -36157.078      190.60995      159.44095      180.70808      256.47733      7389693.9      16.322851      44693.328    
     16600   306.29459      0.0083         0.0020164335  -0.0094038875   7.0091575     -36161.991      194.27639      159.61997      181.53947      256.49005      7432395.5      16.287861      44599.735    
     16700   293.51722      0.00835        0.0049197788   3.7043846e-05  6.9614556     -36156.667      186.17196      159.63027      182.5484       256.50277      7474554.8      16.293614      44617.698    
     16800   299.70255      0.0084        -0.0014684434   0.018819661    7.0416007     -36161.07       190.0952       159.79112      183.57752      256.51549      7524639.8      16.364962      44815.296    
     16900   304.4534       0.00845       -0.021319831   -0.0081458238   7.0133575     -36159.361      193.10856      159.90872      184.50329      256.52821      7568527.6      16.441782      45027.901    
     17000   298.90692      0.0085         0.0066111788   0.0067825234   7.1149496     -36152.432      189.59054      160.23653      185.06453      256.54093      7607489.9      16.413862      44953.666    
     17100   303.06355      0.00855        0.008208967   -0.010046296    7.1047299     -36156.672      192.227        160.73973      185.75586      256.55365      7660267.7      16.364359      44820.314    
     17200   300.42501      0.0086         0.0018693371  -0.00045294883  7.2147949     -36159.195      190.55344      161.18004      186.48351      256.56637      7711723        16.312186      44679.633    
     17300   298.04865      0.00865        0.0015663798  -0.003895293    7.261792      -36158.371      189.04616      161.59975      186.94563      256.57909      7751348.3      16.297562      44641.789    
     17400   303.4537       0.0087         0.0047418801   0.019129359    7.3595663     -36160.782      192.47447      161.95166      187.76096      256.59181      7802494.4      16.289111      44620.851    
     17500   302.69567      0.00875       -0.022046263   -0.0020765999   7.3813629     -36159.081      191.99366      162.94089      187.90354      256.60453      7856504.7      16.27539       44585.476    
     17600   306.17719      0.0088         0.0051915145  -0.0068052621   7.4338529     -36159.305      194.20193      163.40654      188.12946      256.61725      7888820.8      16.273329      44582.04     
     17700   298.61872      0.00885        0.0053414173   0.0014047671   7.4359874     -36154.802      189.40774      164.26296      188.53024      256.62997      7947453.9      16.294746      44642.926    
     17800   299.79681      0.0089         0.014259317   -0.010768358    7.5419305     -36159.173      190.15498      164.80096      188.9015       256.64269      7989581.4      16.286677      44623.032    
     17900   295.16959      0.00895       -0.013454029   -0.00017011464  7.5198893     -36158.524      187.22003      165.33061      189.46243      256.6554       8039458.1      16.29853       44657.721    
     18000   298.26167      0.009         -0.0001182358   0.0044721602   7.5819073     -36158.664      189.18127      165.87038      189.81024      256.66812      8080912.7      16.326602      44736.853    
     18100   304.49521      0.00905       -0.010141558    0.0094580625   7.6398018     -36156.12       193.13508      166.35372      190.48744      256.68084      8133777.9      16.315116      44707.596    
     18200   305.51585      0.0091        -0.0048990483   0.0040178052   7.6446992     -36156.961      193.78245      167.10142      190.73476      256.69356      8181349.8      16.396805      44933.671    
     18300   301.09405      0.00915        0.015682068   -0.013703674    7.6553916     -36157.371      190.97779      167.49971      191.40033      256.70628      8229874.9      16.406407      44962.213    
     18400   300.62082      0.0092         0.0024936684  -0.0031372846   7.7290284     -36158.951      190.67763      167.80839      192.21333      256.719        8280473.6      16.387909      44913.743    
     18500   300.36727      0.00925        0.0051198405  -0.0067208211   7.7894725     -36159.476      190.51681      168.01248      193.22575      256.73172      8334625.3      16.359998      44839.47     
     18600   299.72539      0.0093        -0.016660159    0.0094167878   7.8313716     -36158.774      190.10968      168.07255      194.20846      256.74444      8380424        16.31796       44726.468    
     18700   301.5225       0.00935        0.0063485557  -0.00053254636  7.9393507     -36156.318      191.24955      168.41047      195.18883      256.75716      8440081.1      16.255397      44557.194    
     18800   300.47785      0.0094         0.0021144975  -0.0034864327   7.9668797     -36153.963      190.58695      168.42838      196.11264      256.76988      8481349.1      16.240262      44517.915    
     18900   300.58093      0.00945       -0.0009845059   0.0020579114   7.9664555     -36156.835      190.65233      168.53472      197.18136      256.7826       8533375.1      16.359307      44846.463    
     19000   294.60999      0.0095         0.013405984   -0.00090943518  8.0393746     -36156.405      186.86509      168.62384      198.10562      256.79532      8578332.5      16.326473      44758.67     
     19100   294.0541       0.00955       -0.012192832   -0.0029107989   8.0744887     -36155.054      186.5125       168.71773      199.21309      256.80804      8631518.5      16.311455      44719.715    
     19200   305.73541      0.0096         0.00033647313  0.0066021648   8.0762669     -36156.381      193.92171      168.97128      199.92752      256.82076      8675921.2      16.408973      44989.3      
     19300   302.62972      0.00965       -0.010225796    0.0044674624   8.1199678     -36153.585      191.95184      169.43297      200.75293      256.83348      8735976.5      16.383499      44921.679    
     19400   296.80668      0.0097         0.0057787008  -0.0042967324   8.2031294     -36151.82       188.2584       170.06529      201.16347      256.8462       8786946.1      16.36283       44867.23     
     19500   296.68094      0.00975        0.0052583207  -0.00089739584  8.2350348     -36155.098      188.17865      170.52851      201.62912      256.85892      8831712        16.379055      44913.944    
     19600   302.64163      0.0098         0.01310504     0.0036406924   8.3272854     -36159.916      191.95939      171.19181      202.11641      256.87164      8887931.9      16.341776      44813.939    
     19700   301.4108       0.00985       -0.015354361   -0.013795607    8.3308535     -36156.868      191.1787       171.90811      202.55132      256.88436      8944768.5      16.335223      44798.185    
     19800   303.27647      0.0099        -0.0014725629   0.011654996    8.4461962     -36151.677      192.36206      172.63098      202.80732      256.89708      8994179        16.314018      44742.247    
     19900   302.87262      0.00995        0.0057168422   0.011091637    8.4347556     -36152.067      192.10591      173.6206       202.87408      256.9098       9049164.7      16.342456      44822.46     
     20000   302.94204      0.01           0.0027377672  -0.019529041    8.5015265     -36155.665      192.14993      174.48236      203.33123      256.92252      9115023.2      16.324408      44775.176    
     20100   303.63156      0.01005       -0.0054511594   0.0042103797   8.4971513     -36158.072      192.58728      174.94014      203.44887      256.93524      9144678.1      16.362948      44883.108    
     20200   299.7227       0.0101         0.0072842801   0.012309203    8.6166006     -36156.255      190.10798      175.70007      203.94238      256.94795      9207136.8      16.245258      44562.495    
     20300   301.5778       0.01015       -0.014756334   -0.0021239914   8.656766      -36156.402      191.28462      176.21948      204.5953       256.96067      9264377.3      16.250742      44579.744    
     20400   303.79653      0.0102         0.00023080498 -0.0021799257   8.6932572     -36152.422      192.69192      176.74018      204.8697       256.97339      9304674.4      16.275624      44650.212    
     20500   306.45556      0.01025        0.014989212   -0.0046202077   8.741206      -36151.879      194.37849      177.08686      205.95427      256.98611      9372744.5      16.308237      44741.897    
     20600   303.3397       0.0103        -0.0086059147  -0.0084028317   8.7378574     -36153.535      192.40216      177.24957      206.86316      256.99883      9423223.3      16.283848      44677.194    
     20700   303.8926       0.01035        0.0017316709   0.0030215238   8.8263042     -36155.96       192.75286      177.34335      207.99314      257.01155      9480179.7      16.307422      44744.087    
     20800   300.37789      0.0104        -0.006732765    0.017153592    8.8298275     -36154.702      190.52354      177.40904      209.05474      257.02427      9532567.8      16.312554      44760.385    
     20900   295.00247      0.01045        0.0022282946  -0.012807703    8.8976809     -36152.647      187.11403      177.80263      210.04019      257.03699      9599226.1      16.309334      44753.765    
     21000   298.08289      0.0105         0.0092284363  -0.012270329    8.9471495     -36156.083      189.06788      177.70894      211.17788      257.04971      9646612.3      16.23552       44553.419    
     21100   301.58192      0.01055       -0.00082959169  0.0033666354   9.0428438     -36159.586      191.28724      177.87057      212.3549       257.06243      9709681.5      16.229959      44540.362    
     21200   301.91077      0.0106         0.0041561113  -0.0067834968   9.0984935     -36157.311      191.49582      177.93523      213.31577      257.07515      9757644.6      16.22006       44515.397    
     21300   302.01732      0.01065       -0.016954803    0.022655083    9.0943739     -36152.669      191.56341      177.95824      214.39705      257.08787      9808858.9      16.282993      44690.327    
     21400   301.17405      0.0107         0.0016522192  -0.0048107144   9.094708      -36151.013      191.02854      178.66663      214.84506      257.10059      9868971.4      16.299054      44736.621    
     21500   298.79861      0.01075       -0.00049931248 -0.0051454086   9.132123      -36151.791      189.52185      179.09446      215.47683      257.11331      9922184.2      16.358281      44901.406    
     21600   298.2173       0.0108         0.01457272    -0.0039776092   9.1586512     -36155.457      189.15313      179.79427      215.89128      257.12603      9980607.5      16.38999       44990.667    
     21700   292.62516      0.01085       -0.0025161099  -0.0026281725   9.1798302     -36156.683      185.60615      180.16584      216.77872      257.13875      10042842       16.398121      45015.215    
     21800   295.16333      0.0109        -0.01230309     0.010586871    9.2216538     -36155.983      187.21606      180.78658      216.96588      257.15147      10086643       16.403841      45033.144    
     21900   301.83323      0.01095        0.0079158878   0.0036973265   9.2365466     -36156.576      191.44664      181.73323      217.2987       257.16419      10155516       16.451707      45166.785    
     22000   302.11864      0.011         -0.005980613   -0.004933661    9.3358716     -36153.424      191.62767      182.47501      217.5274       257.17691      10208204       16.416867      45073.362    
     22100   305.14103      0.01105        0.00030287256 -0.0054395734   9.3945886     -36153.752      193.54471      183.32828      217.75262      257.18963      10267065       16.309175      44779.903    
     22200   302.80068      0.0111         0.0012095748   0.0039955556   9.454045      -36153.2        192.06028      183.96477      218.2205       257.20235      10325358       16.320328      44812.743    
     22300   299.02497      0.01115       -0.0015077023  -0.008502136    9.4999531     -36155.799      189.66542      184.74102      218.50459      257.21507      10382939       16.270114      44677.073    
     22400   296.6749       0.0112         0.0090498963   0.010822548    9.5712018     -36156.456      188.17482      185.12545      219.22679      257.22779      10439450       16.28969       44733.042    
     22500   298.63303      0.01125       -2.6666231e-05  0.0072157507   9.587568      -36154.355      189.41682      185.8595       219.69448      257.2405       10503723       16.279589      44707.513    
     22600   297.60831      0.0113        -0.003712011   -0.023744986    9.6230457     -36150.342      188.76686      185.92603      220.69364      257.25322      10555792       16.329347      44846.377    
     22700   300.52944      0.01135        0.0014532826   0.018592012    9.6126302     -36150.829      190.61967      186.27514      221.32178      257.26594      10606238       16.358771      44929.407    
     22800   302.03645      0.0114         0.0063962145  -0.011033395    9.7270209     -36152.028      191.57554      186.54887      222.47485      257.27866      10677690       16.30198       44775.645    
     22900   300.22375      0.01145       -0.010741305   -0.0027566987   9.7384583     -36152.928      190.42578      186.53871      223.71948      257.29138      10737372       16.291015      44747.741    
     23000   294.04376      0.0115         0.0046748867   0.0054913178   9.7715771     -36153.344      186.50594      186.83885      224.54658      257.3041       10794943       16.32744       44850.009    
     23100   294.21962      0.01155        0.011763982    0.0038293094   9.8397157     -36153.574      186.61748      186.95741      225.79085      257.31682      10862185       16.33617       44876.209    
     23200   298.35006      0.0116        -0.016378527   -0.013173773    9.9026967     -36150.017      189.23734      187.08129      226.87558      257.32954      10922140       16.231735      44591.523    
     23300   302.88401      0.01165        0.0080834044   0.010952646    9.9777622     -36150.453      192.11313      187.1707       227.66384      257.34226      10965868       16.257415      44664.28     
     23400   300.71024      0.0117        -0.0015571495   0.0070939481   9.9867856     -36150.016      190.73435      187.54199      228.85254      257.35498      11045537       16.229502      44589.798    
     23500   300.82827      0.01175       -0.0080780829  -0.012701171    10.084715     -36152.51       190.80921      187.93013      229.6662       257.3677       11108298       16.230789      44595.537    
     23600   297.04303      0.0118        -0.0036479448   0.0066801313   10.044387     -36153.403      188.40831      188.1448       230.30614      257.38042      11152526       16.260535      44679.474    
     23700   288.30252      0.01185        0.011430702    0.004168508    10.113128     -36150.415      182.86439      188.91596      230.96541      257.39314      11230848       16.280975      44737.849    
     23800   292.51576      0.0119        -0.0062499172  -0.0082743268   10.116225     -36150.098      185.53676      189.41492      231.49817      257.40586      11287043       16.278157      44732.317    
     23900   301.56011      0.01195        0.0061827561  -0.0030165146   10.123166     -36150.048      191.2734       189.95504      231.78837      257.41858      11333977       16.34176       44909.316    
     24000   302.31103      0.012          0.0051016007   0.015530195    10.163096     -36147.572      191.7497       190.68057      232.33131      257.4313       11404481       16.408833      45095.87     
     24100   304.75035      0.01205       -0.011665684   -0.010018264    10.254527     -36149.429      193.29691      191.73634      232.71702      257.44402      11487231       16.299101      44796.51     
     24200   300.33676      0.0121         0.0017801976  -0.0097059885   10.256693     -36151.168      190.49746      192.07519      232.95398      257.45674      11519819       16.312801      44836.378    
     24300   302.13878      0.01215        0.0014072208   0.017721541    10.37121      -36153.526      191.64044      193.04596      233.62698      257.46946      11612064       16.274733      44733.957    
     24400   303.04616      0.0122        -0.0055203046  -0.00965049     10.409039     -36153.482      192.21598      193.72287      233.97626      257.48218      11670780       16.257732      44689.436    
     24500   295.53389      0.01225        0.0013644055  -0.002178376    10.462722     -36147.002      187.4511       194.21737      234.51607      257.4949       11728144       16.208842      44557.247    
     24600   302.74913      0.0123         0.0280689      0.011919524    10.514874     -36150.326      192.02758      194.75305      235.10653      257.50762      11790685       16.214463      44574.899    
     24700   299.10032      0.01235       -0.026585768   -0.0083721186   10.547097     -36147.818      189.71321      195.16829      236.26219      257.52034      11874491       16.21181       44569.807    
     24800   300.34026      0.0124        -0.0058668323   0.0076615533   10.601198     -36149.085      190.49968      195.41235      236.80519      257.53305      11917254       16.250175      44677.49     
     24900   301.86553      0.01245        0.015075623   -0.0023795883   10.541426     -36150.112      191.46713      195.88019      237.53283      257.54577      11983084       16.332579      44906.263    
     25000   302.62669      0.0125        -0.0035124498  -0.010382362    10.616962     -36149.969      191.94991      196.06966      238.82408      257.55849      12060474       16.36714       45003.513    
     25100   304.27628      0.01255       -0.0026946988  -0.0034313603   10.578101     -36148.963      192.99621      196.21217      239.79143      257.57121      12118725       16.439691      45205.232    
     25200   298.71367      0.0126         0.0059258907   0.00088940754  10.670218     -36144.179      189.46797      196.26021      241.0671       257.58393      12186780       16.408318      45121.193    
     25300   305.32079      0.01265       -0.0098978165  -0.0012171534   10.714528     -36150.105      193.65872      196.48173      242.07959      257.59665      12252383       16.312047      44858.673    
     25400   299.15127      0.0127         0.010522892    0.0029637446   10.810443     -36150.725      189.74553      196.85926      243.10574      257.60937      12328570       16.325102      44896.791    
     25500   301.31301      0.01275       -0.0061208786  -0.0026644722   10.850147     -36152.846      191.11668      196.88206      244.10808      257.62209      12381446       16.281158      44778.149    
     25600   300.33046      0.0128         0.004850323    0.0041964209   10.938759     -36148.767      190.49346      197.16802      245.19897      257.63481      12455457       16.269086      44747.155    
     25700   302.81721      0.01285       -0.006625103    0.01622863     10.932719     -36147.702      192.07076      197.48022      246.05399      257.64753      12519299       16.282745      44786.935    
     25800   301.20258      0.0129        -0.0054429918  -0.0093176399   10.932259     -36146.868      191.04663      198.20068      246.58189      257.66025      12592552       16.333605      44929.047    
     25900   301.7689       0.01295        0.0058334894  -0.0034129786   11.10012      -36147.416      191.40583      198.7337       247.07393      257.67297      12652237       16.240713      44675.732    
     26000   300.34678      0.013          0.0037556834  -0.0018813976   11.108095     -36147.188      190.50382      199.27402      247.82424      257.68569      12725791       16.236652      44666.768    
     26100   298.50069      0.01305       -0.0064138294  -0.00047137555  11.141552     -36148.121      189.33287      199.85077      248.37568      257.69841      12791652       16.297958      44837.634    
     26200   294.75672      0.0131        -0.0020948588   0.0040983766   11.185847     -36147.217      186.95815      200.60603      248.61661      257.71113      12853082       16.260645      44737.187    
     26300   302.13813      0.01315        0.012345077    0.010215704    11.187567     -36148.815      191.64003      201.5503       249.01938      257.72385      12935142       16.308609      44871.363    
     26400   303.90275      0.0132        -0.0084793849  -0.012599715    11.231603     -36145.911      192.75929      202.37368      249.45543      257.73657      13011370       16.2971        44841.911    
     26500   302.52027      0.01325        0.0029118734  -0.000476692    11.276803     -36143.194      191.88241      203.14005      249.4486       257.74929      13060930       16.318531      44903.094    
     26600   298.82437      0.0133         0.017334694    0.012278342    11.297103     -36144.417      189.53818      204.0536       249.86302      257.76201      13142112       16.347422      44984.813    
     26700   294.97381      0.01335       -0.01664909    -0.014893398    11.357951     -36146.796      187.09585      204.71724      250.77792      257.77473      13233784       16.308406      44879.663    
     26800   296.53349      0.0134         0.0013533028   0.0013402546   11.397845     -36146.594      188.08513      205.00184      251.14133      257.78745      13272041       16.338239      44963.98     
     26900   303.84678      0.01345        0.0063627175   0.0076032848   11.461026     -36146.445      192.72379      205.50302      252.09432      257.80017      13355633       16.311799      44893.431    
     27000   304.40978      0.0135        -0.0091783164  -0.0023650007   11.477003     -36145.452      193.08089      205.91306      253.19452      257.81289      13441347       16.346343      44990.724    
     27100   302.655        0.01355       -0.0015906021   0.0028725346   11.528614     -36146.491      191.96787      205.98942      253.75093      257.8256       13476546       16.303549      44875.153    
     27200   304.28413      0.0136         0.015615186    0.0023220013   11.535122     -36148.889      193.0012       206.30155      255.21648      257.83832      13575589       16.341335      44981.378    
     27300   300.61254      0.01365       -0.0094844935  -0.01439696     11.595036     -36148.165      190.67238      206.28208      256.50503      257.85104      13643515       16.348611      45003.625    
     27400   296.90351      0.0137        -0.00076072771  0.0020760929   11.62206      -36148.827      188.31982      206.27731      257.5804       257.86376      13701073       16.384895      45105.731    
     27500   295.6211       0.01375        0.0027006741   0.012858422    11.613439     -36144.362      187.50641      206.52459      258.98301      257.87648      13792874       16.464275      45326.49     
     27600   300.79808      0.0138        -0.013616588   -0.0055971137   11.641027     -36143.106      190.79006      207.05793      259.67328      257.8892       13866035       16.44551       45277.063    
     27700   299.83458      0.01385        0.015450825   -0.0055481271   11.745544     -36142.014      190.17894      207.29232      260.58929      257.90192      13931387       16.374942      45085.001    
     27800   297.49073      0.0139         0.004444083    0.0060090074   11.883972     -36143.036      188.69228      207.61307      261.69114      257.91464      14012632       16.253358      44752.453    
     27900   293.97851      0.01395       -0.0046161011  -0.01393898     11.892471     -36144.035      186.46455      207.96271      262.68753      257.92736      14090368       16.258202      44767.998    
     28000   291.96938      0.014         -0.0014685751   0.015386817    11.90998      -36146.226      185.1902       208.23037      263.30638      257.94008      14142438       16.297547      44878.552    
     28100   300.13578      0.01405        0.0022539823   0.0070393242   11.902997     -36151.741      190.36998      209.28577      263.75213      257.9528       14238883       16.364362      45064.76     
     28200   298.45413      0.0141        -0.010761057   -0.021222303    11.969889     -36144.166      189.30335      209.9073       264.23734      257.96552      14308147       16.321776      44949.702    
     28300   299.28004      0.01415        0.0065538363   0.013063688    12.043354     -36141.137      189.82721      210.68071      264.46309      257.97824      14373843       16.341746      45006.919    
     28400   299.02249      0.0142         0.0075751172  -0.0014338289   12.066074     -36140.37       189.66385      211.59043      264.88053      257.99096      14459409       16.323621      44959.217    
     28500   300.89678      0.01425       -0.014234084   -0.0017221664   12.094248     -36143.398      190.85267      212.26816      265.43973      258.00368      14537063       16.321204      44954.776    
     28600   296.15016      0.0143         0.00024866898  0.010352465    12.158322     -36142.608      187.84198      213.03905      265.38906      258.0164       14587791       16.286453      44861.27     
     28700   301.90545      0.01435        0.010432702   -0.0021558972   12.184684     -36147.262      191.49245      214.01603      265.96349      258.02912      14687134       16.337195      45003.259    
     28800   298.69842      0.0144        -0.0089340118  -0.010203337    12.230108     -36142.753      189.45829      214.72585      266.49266      258.04184      14765892       16.313411      44939.957    
     28900   305.03452      0.01445        0.0035222552  -0.0070472017   12.349318     -36142.53       193.47715      214.97395      267.27401      258.05456      14827028       16.217399      44677.668    
     29000   301.75011      0.0145         0.0014761909   0.018956517    12.350429     -36139.903      191.39392      215.41749      268.5789       258.06728      14930893       16.253148      44778.36     
     29100   296.1856       0.01455       -0.011740268   -0.011100717    12.445652     -36140.545      187.86446      215.85754      269.19165      258.08         14996267       16.222439      44695.957    
     29200   293.10101      0.0146         0.010311866    0.001352192    12.481866     -36141.301      185.90797      215.94845      270.31549      258.09272      15065959       16.266187      44818.702    
     29300   295.05986      0.01465        0.0091602397   8.1107427e-06  12.552905     -36141.367      187.15043      216.14147      271.46418      258.10544      15144250       16.234005      44732.235    
     29400   299.48717      0.0147        -0.0071328382  -0.010017103    12.463999     -36141.914      189.95858      216.41143      272.67815      258.11815      15231725       16.330882      45001.393    
     29500   301.07311      0.01475       -0.0010735437   0.0044002082   12.635131     -36140.298      190.96451      216.34574      273.95678      258.13087      15299258       16.266753      44826.886    
     29600   298.90217      0.0148         0.00067218362  0.0079188591   12.55978      -36137.585      189.58753      216.54053      275.25618      258.14359      15386422       16.346708      45049.441    
     29700   299.97365      0.01485       -0.00635198     0.008318123    12.67229      -36138.932      190.26714      216.72788      276.48371      258.15631      15469172       16.329409      45003.986    
     29800   296.17191      0.0149        -0.0028132746  -0.012173955    12.593371     -36140.198      187.85578      217.23651      277.05577      258.16903      15538324       16.37924       45143.546    
     29900   292.74804      0.01495        0.014873383    0.00048919064  12.704683     -36139.624      185.68409      217.41217      278.31158      258.18175      15622145       16.386377      45165.441    
     30000   300.81625      0.015         -0.0075171741  -0.0056452348   12.683573     -36141.158      190.80159      217.80049      279.20211      258.19447      15700898       16.424605      45273.038    
     30100   307.25825      0.01505        0.0064562526  -0.0020346519   12.83036      -36141.261      194.88762      218.18814      280.26172      258.20719      15789313       16.293713      44914.456    
     30200   301.10431      0.0151        -0.0056755298   0.0094013085   12.896806     -36137.803      190.9843       218.40797      281.08834      258.21991      15852620       16.266444      44841.497    
     30300   300.21305      0.01515       -0.0022209022   0.011812628    12.935542     -36139.054      190.41899      219.4787       281.53287      258.23263      15956315       16.281259      44884.55     
     30400   299.20634      0.0152         0.00073932015 -0.0097917752   12.999745     -36139.144      189.78046      220.16966      281.829        258.24535      16024174       16.282531      44890.267    
     30500   300.11117      0.01525        0.0017711601  -0.0047520706   12.969377     -36139.377      190.35437      221.05719      282.04167      258.25807      16101704       16.308894      44965.164    
     30600   299.76508      0.0153         0.015031677   -5.9445685e-05  13.08648      -36138.202      190.13485      221.82154      282.66763      258.27079      16194035       16.266846      44851.442    
     30700   308.66265      0.01535       -0.01583229    -0.0028295208   13.067483     -36140.185      195.7784       222.49705      283.21702      258.28351      16275722       16.268546      44858.34     
     30800   305.70499      0.0154         0.0069853631   0.003379914    13.18088      -36136.868      193.90242      223.28935      283.44933      258.29623      16347883       16.276157      44881.534    
     30900   303.31208      0.01545       -1.1827869e-05  0.014856891    13.089065     -36139.468      192.38465      223.94372      284.33309      258.30895      16447722       16.390315      45198.552    
     31000   302.22566      0.0155        -0.015403479   -0.010804517    13.114544     -36141.8        191.69555      224.71002      284.66087      258.32167      16523843       16.419243      45280.555    
     31100   296.11554      0.01555        0.017649079   -0.0028288863   13.138593     -36136.812      187.82003      225.40702      284.97324      258.33439      16594101       16.442455      45346.8      
     31200   305.83104      0.0156         0.0010296988   0.00062769651  13.212023     -36139.64       193.98237      225.96803      286.059        258.34711      16699605       16.358928      45118.662    
     31300   301.64043      0.01565       -0.0083999732  -0.0034518699   13.279525     -36134.095      191.32435      226.24781      287.04465      258.35983      16778720       16.346411      45086.36     
     31400   304.33624      0.0157        -0.0011012691   0.003470608    13.373352     -36131.272      193.03425      226.65102      287.96325      258.37255      16863243       16.278404      44900.994    
     31500   302.65678      0.01575        0.009748392    0.00082643788  13.481403     -36132.292      191.969        227.07406      289.16387      258.38527      16965994       16.215942      44730.906    
     31600   297.72894      0.0158         0.00089541601 -0.01230504     13.527503     -36134.848      188.84337      226.90504      290.75022      258.39799      17047211       16.226607      44762.529    
     31700   299.17636      0.01585        0.0039157626   0.0030412236   13.506581     -36138.005      189.76144      226.70174      292.2502       258.4107       17120647       16.26462       44869.6      
     31800   296.21777      0.0159        -0.0097743961   0.008699032    13.546657     -36137.086      187.88487      226.83765      293.60664      258.42342      17211268       16.282798      44921.958    
     31900   299.26818      0.01595       -0.0018546776  -0.0033171934   13.612678     -36135.965      189.81968      226.86145      295.01645      258.43614      17296578       16.268764      44885.449    
     32000   302.99358      0.016          0.0027210125   0.01865548     13.602909     -36134.124      192.18263      226.74467      296.24291      258.44886      17360398       16.298689      44970.226    
     32100   302.67811      0.01605       -0.0035779043  -0.0030865673   13.624268     -36134.393      191.98253      227.42635      297.48008      258.46158      17486169       16.339564      45085.224    
     32200   299.53814      0.0161        -0.0033119926  -0.014075387    13.659404     -36137.835      189.99091      227.61506      298.24497      258.4743       17546540       16.354304      45128.118    
     32300   295.9445       0.01615        0.00901637     0.0067057799   13.719857     -36138.816      187.71154      228.05533      299.18676      258.48702      17636863       16.307295      45000.615    
     32400   297.53603      0.0162        -0.0026810351  -0.0031881333   13.821102     -36137.173      188.72101      228.87307      299.86413      258.49974      17741050       16.28647       44945.358    
     32500   297.58025      0.01625        0.0012057772  -0.0086902358   13.886932     -36132.938      188.74906      229.29877      300.39856      258.51246      17806602       16.257617      44867.942    
     32600   302.51844      0.0163         0.0076939182   0.023199585    13.912494     -36134.466      191.88126      230.10831      301.01947      258.52518      17907285       16.268553      44900.331    
     32700   299.48329      0.01635       -0.016996328   -0.0094686826   13.936598     -36134.424      189.95612      231.0908       301.41402      258.5379       18008201       16.251718      44856.074    
     32800   294.63897      0.0164        -0.0022192844   0.0026598669   13.980375     -36135.741      186.88347      232.1063       301.3624       258.55062      18085128       16.302036      44997.171    
     32900   293.10254      0.01645        0.011852526    0.0022733862   14.007462     -36137.416      185.90894      233.14035      301.39368      258.56334      18168477       16.290249      44966.847    
     33000   297.1223       0.0165        -0.0047731606  -0.011039939    14.034146     -36134.659      188.45859      233.98734      301.76177      258.57606      18257651       16.310843      45025.911    
     33100   301.89178      0.01655        0.010307835    0.0022925777   14.068275     -36132.582      191.48378      234.64705      302.13811      258.58878      18332862       16.359644      45162.845    
     33200   299.37971      0.0166         0.0048183397   0.012027062    14.035141     -36130.27       189.89042      235.58451      302.85202      258.6015       18450504       16.397743      45270.25     
     33300   301.22013      0.01665       -0.020507834   -0.010421855    14.126508     -36133.429      191.05776      236.36947      303.26968      258.61422      18538423       16.378238      45218.626    
     33400   302.33089      0.0167         0.0096326077   0.0071063424   14.204699     -36137.861      191.76229      236.77522      303.80604      258.62694      18604003       16.333844      45098.275    
     33500   295.50551      0.01675        0.0043759626  -0.001204843    14.214327     -36134.067      187.4331       237.35276      305.24541      258.63966      18738661       16.386319      45245.387    
     33600   301.76122      0.0168        -0.0026773205  -0.01354579     14.268921     -36134.686      191.40096      237.38698      306.18225      258.65238      18799807       16.340186      45120.225    
     33700   304.2289       0.01685        0.0071378869   0.013776563    14.368498     -36130.479      192.96617      237.47775      307.59605      258.6651       18894766       16.265004      44914.834    
     33800   303.50854      0.0169         0.0057140081  -0.0045242737   14.423407     -36129.298      192.50926      237.71949      309.33851      258.67782      19022078       16.268077      44925.526    
     33900   306.00373      0.01695       -0.012169199   -0.012310489    14.532727     -36133.412      194.0919       237.47509      310.73279      258.69054      19089111       16.173714      44667.133    
[...]
    346100   299.77824      0.17305       -0.0053497088   0.0018008295  -8.040461      -36006.903      190.1432       18.049284      18.903644      298.40102      101813.6       18.275376      58219.148    
    346200   298.43469      0.1731         0.001383858    0.0081849052  -7.7099633     -36008.782      189.29101      17.935154      19.017277      298.41374      101782.3       17.985002      57296.558    
    346300   297.87076      0.17315       -0.0036973262   0.0098244936  -7.1117323     -36013.012      188.93332      17.833314      19.148807      298.42646      101908.67      17.991639      57320.144    
    346400   303.48157      0.1732        -0.00091926048 -0.011464698   -6.3497457     -36018.803      192.49215      17.74936       19.241709      298.43918      101925.34      18.030071      57445.035    
    346500   302.47986      0.17325       -0.011464647    0.0028551166  -5.4534932     -36021.815      191.85678      17.67009       19.329224      298.4519       101935.98      18.204035      58001.769    
    346600   301.01428      0.1733         0.0026308268  -0.0046881177  -4.7543478     -36024.353      190.9272       17.624389      19.366532      298.46462      101872.93      18.313454      58352.884    
    346700   299.53203      0.17335        0.011298138    0.0082862003  -4.0153472     -36026.393      189.98703      17.547437      19.420352      298.47734      101714.33      18.268464      58212.014    
    346800   303.56595      0.1734        -0.0025842947   0.0015097432  -3.1278157     -36033.142      192.54567      17.515838      19.456273      298.49006      101723.3       18.280087      58251.531    
    346900   298.9006       0.17345        0.0033575155  -0.0068149156  -2.2014309     -36034.609      189.58653      17.493391      19.439994      298.50278      101512.26      18.180576      57936.897    
    347000   303.76149      0.1735        -0.010586083   -0.0041208425  -1.2665259     -36040.051      192.66969      17.489468      19.397533      298.5155       101272.14      18.044452      57505.556    
    347100   299.08569      0.17355        0.00022821003  0.0091271362  -0.42557429    -36039.114      189.70393      17.543102      19.304694      298.52822      101100.82      18.178427      57934.984    
    347200   299.15665      0.1736         0.010680582    0.0045059804   0.48028432    -36043.046      189.74894      17.604593      19.219929      298.54094      101014.02      18.072714      57600.53     
    347300   291.31263      0.17365       -0.0063738672  -0.00040533431  1.4143666     -36040.635      184.77364      17.650048      19.144586      298.55366      100882.14      18.282447      58271.465    
    347400   296.02262      0.1737        -0.0019419964  -0.016066334    2.195002      -36040.839      187.76109      17.687762      19.052203      298.56637      100614.13      18.416257      58700.458    
    347500   300.49993      0.17375        0.0018886111   0.010213139    3.041905      -36040.298      190.60096      17.719176      18.953969      298.57909      100277.4       18.335619      58445.918    
    347600   298.15932      0.1738         0.0012291676   0.008457055    3.9314512     -36035.309      189.11635      17.837836      18.878007      298.59181      100548.64      18.10076       57699.749    
    347700   291.21209      0.17385       -0.0044233544  -0.0036969173   4.820909      -36025.036      184.70987      17.92229       18.796576      298.60453      100593.2       17.977097      57307.991    
    347800   294.286        0.1739        -0.0041656499  -0.0047416078   5.5781665     -36021.065      186.65959      18.008639      18.72822       298.61725      100714.57      17.982117      57326.437    
    347900   294.37699      0.17395        0.015925619    0.002559818    6.0430131     -36016.102      186.7173       18.093395      18.635196      298.62997      100690.25      18.086626      57662.063    
    348000   299.52386      0.174         -0.010739447    0.0071429186   6.4930072     -36014.031      189.98186      18.201578      18.607238      298.64269      101144.64      18.297555      58337.01     
    348100   297.05418      0.17405       -0.0046788228  -0.0091653036   7.0600342     -36007.838      188.41539      18.278977      18.544226      298.65541      101235.07      18.19949       58026.827    
    348200   300.45752      0.1741         0.0057175825  -0.0012769428   7.4412611     -36006.095      190.57405      18.341491      18.495146      298.66813      101316.76      18.057602      57576.889    
    348300   299.04684      0.17415        0.0072614416   0.013491536    7.6121554     -36003.129      189.67929      18.392757      18.487409      298.68085      101561.77      18.15738       57897.496    
    348400   301.87678      0.1742        -0.010216657   -0.016856428    7.7710236     -36002.127      191.47426      18.433353      18.489868      298.69357      101803.81      18.310598      58388.542    
    348500   304.5731       0.17425        0.006490154    0.00024061172  7.8002064     -36000.318      193.18448      18.4034        18.516748      298.70629      101790.48      18.21887       58098.514    
    348600   303.0543       0.1743         0.0029005084   0.0085201909   7.5877642     -35999.323      192.22114      18.379049      18.55984       298.71901      101896.7       18.196066      58028.266    
    348700   300.839        0.17435       -0.0026631415  -0.0096908579   7.2210129     -36004.408      190.81602      18.350605      18.607821      298.73173      102006.36      18.299307      58359.993    
    348800   303.86629      0.1744        -0.001299339    0.0023963368   6.7245603     -36010.64       192.73617      18.28207       18.628809      298.74445      101744.35      18.350512      58525.785    
    348900   305.74287      0.17445        0.0081461757   0.013282322    6.2000947     -36016.197      193.92644      18.249642      18.685528      298.75717      101877.45      18.363452      58569.551    
    349000   300.19943      0.1745        -0.0073140795  -0.01358229     5.6273499     -36017.309      190.41035      18.172962      18.726856      298.76989      101678.1       18.014751      57459.828    
    349100   302.2321       0.17455       -0.0014239893  -0.0036182684   5.0561102     -36022.06       191.69964      18.070367      18.795494      298.78261      101478.96      17.865936      56987.592    
    349200   302.28244      0.1746         0.006991551    0.013654608    4.5517221     -36026.241      191.73156      17.980385      18.853812      298.79533      101291.26      17.996643      57406.959    
    349300   305.93786      0.17465       -0.0022763695  -0.0031410858   3.7399326     -36032.391      194.05012      17.920391      18.929635      298.80805      101363.59      18.168752      57958.43     
    349400   305.64407      0.1747        -0.0028146661  -0.014127908    2.9241874     -36035.798      193.86378      17.831774      18.96235       298.82077      101040.96      18.22512       58140.719    
    349500   298.8555       0.17475       -0.003146427    0.0083763338   2.008819      -36035.228      189.55792      17.735756      19.033662      298.83349      100879.13      18.262043      58260.99     
    349600   299.91581      0.1748         0.009524744    0.002512205    1.2198163     -36039.449      190.23046      17.658505      19.099724      298.84621      100792.63      18.30168       58389.928    
    349700   303.86766      0.17485       -0.0010856692  -0.0032584383   0.40456713    -36044.895      192.73704      17.599356      19.194579      298.85892      100958.2       18.291019      58358.398    
    349800   299.31347      0.1749        -0.01005525     0.0027247264  -0.60584265    -36043.369      189.84841      17.581669      19.233278      298.87164      101064.38      18.300265      58390.382    
    349900   298.7952       0.17495        0.0083320335  -0.0088720652  -1.5260972     -36041.87       189.51968      17.550034      19.280661      298.88436      101135.37      18.297592      58384.338    
    350000   303.76023      0.175         -0.0077696533   0.014968868   -2.4302894     -36038.297      192.6689       17.552829      19.280397      298.89708      101154.4       18.436611      58830.429    
    350100   299.0351       0.17505        0.009024882   -0.00034212459 -3.3578997     -36033.119      189.67185      17.576979      19.291731      298.9098       101357.43      18.41052       58749.671    
    350200   300.40311      0.1751        -0.0071183185   0.00011656354 -4.2313997     -36032.694      190.53954      17.648168      19.249857      298.92252      101551.37      18.363487      58602.079    
    350300   298.8318       0.17515        0.0036455214  -0.0099915553  -5.0300657     -36027.701      189.54289      17.737497      19.203916      298.93524      101826.14      18.41378       58765.075    
    350400   296.55702      0.1752        -0.0053234016  -0.0046612017  -5.7251507     -36021.911      188.10005      17.807454      19.152958      298.94796      101960.81      18.384413      58673.851    
    350500   301.99017      0.17525        0.005152557    0.014768893   -6.314772      -36022.293      191.54619      17.916282      19.080506      298.96068      102200.23      18.344173      58547.916    
    350600   295.22743      0.1753         0.0061761755  -0.0039846121  -6.8222288     -36014.003      187.25672      18.026865      19.014742      298.9734       102480.97      18.387392      58688.354    
    350700   299.64031      0.17535       -0.011438799    0.0070430844  -7.1511789     -36012.657      190.05572      18.14376       18.898347      298.98612      102518.48      18.487576      59010.628    
    350800   296.20154      0.1754         0.0067642808  -0.012835274   -7.3445175     -36007.348      187.87457      18.279856      18.767863      298.99884      102578.68      18.575948      59295.225    
    350900   297.43175      0.17545       -0.0090704724  -0.0029611433  -7.4843938     -36005.123      188.65487      18.359388      18.651223      299.01156      102389.04      18.608581      59401.92     
    351000   299.99649      0.1755         0.012834483    0.013876096   -7.3760917     -36005.568      190.28163      18.502009      18.507496      299.02428      102393.64      18.824697      60094.356    
    351100   301.84496      0.17555       -0.00053713423 -0.0046774303  -7.362971      -36005.714      191.45408      18.597103      18.411864      299.037        102392.46      18.609309      59409.295    
    351200   298.70476      0.1756        -0.0098496288   0.0046509676  -6.976351      -36005.907      189.46232      18.656003      18.292873      299.04972      102057.27      18.616548      59434.935    
    351300   300.68802      0.17565        0.0057588378  -0.0051639783  -6.6745603     -36012.753      190.72025      18.669315      18.221057      299.06244      101733.46      18.584184      59334.134    
    351400   297.12658      0.1757        -0.0036788202   0.0064169493  -6.1716541     -36014.776      188.46131      18.691912      18.148449      299.07516      101455.03      18.52796       59157.141    
    351500   303.77784      0.17575        0.01387873    -0.012104024   -5.5465919     -36021.319      192.68007      18.666847      18.13984       299.08788      101275.23      18.573476      59304.989    
    351600   300.84246      0.1758        -0.014476332    0.011759451   -4.9532443     -36023.176      190.81822      18.644913      18.136831      299.1006       101143.75      18.566183      59284.224    
    351700   302.49666      0.17585        0.012051063   -0.014972659   -4.2373672     -36027.946      191.86744      18.584444      18.171442      299.11332      101012.4       18.621759      59464.214    
    351800   299.89098      0.1759        -0.0024408605   0.0052888069  -3.6296416     -36029.278      190.21471      18.508578      18.229613      299.12604      100926.38      18.575165      59317.949    
    351900   302.42975      0.17595        0.0037554644  -0.0036689645  -2.8817461     -36033.859      191.825        18.399905      18.347182      299.13876      100985.18      18.534345      59190.114    
    352000   301.6581       0.176         -8.8775857e-05  0.0027547066  -2.0023994     -36037.015      191.33556      18.31329       18.466778      299.15147      101169.28      18.599236      59399.87     
    352100   298.98685      0.17605       -0.0075138164  -0.00071048253 -1.0769765     -36038.162      189.64124      18.231571      18.58767       299.16419      101381.49      18.564085      59290.131    
    352200   298.90462      0.1761         0.0052731176  -0.00056646697 -0.27133425    -36038.838      189.58908      18.15765       18.703579      299.17691      101604.38      18.568712      59307.429    
    352300   300.30903      0.17615        0.0021316472   0.015841016    0.57024396    -36040.487      190.47987      18.069191      18.829225      299.18963      101792.95      18.629215      59503.201    
    352400   303.2386       0.1762        -0.0072578402  -0.0077319544   1.531848      -36039.272      192.33803      18.023969      18.949414      299.20235      102190.66      18.605159      59428.893    
    352500   299.41152      0.17625        0.0032818024  -0.0093388568   2.3411252     -36031.458      189.9106       17.915692      19.070654      299.21507      102231.01      18.74345       59873.17     
    352600   297.77093      0.1763        -0.0028721853   0.0099937123   3.2136491     -36028.613      188.87001      17.843904      19.180704      299.22779      102413.3       18.633334      59523.949    
    352700   296.22185      0.17635        0.0057444502   0.0023824851   3.9329934     -36024.904      187.88745      17.772559      19.276375      299.24051      102516.96      18.612033      59458.432    
    352800   304.09523      0.1764         0.00062013916 -0.0077427629   4.5936573     -36024.918      192.88138      17.675108      19.400274      299.25323      102614.51      18.653019      59591.9      
    352900   297.40843      0.17645       -0.010228706    0.0018917009   5.3862699     -36018.666      188.64008      17.580091      19.429701      299.26595      102222.04      18.621938      59495.13     
    353000   296.67932      0.1765         0.011495063   -0.00022089442  5.9654642     -36016.4        188.17762      17.521738      19.458673      299.27867      102038.99      18.626516      59512.288    
    353100   299.05047      0.17655       -0.0014897872   0.0051737085   6.3891851     -36014.574      189.68159      17.472662      19.461026      299.29139      101769.83      18.629489      59524.314    
    353200   294.03797      0.1766        -0.0031975592  -0.0045216611   6.5176056     -36008.284      186.50227      17.448674      19.451951      299.30411      101587.03      18.600529      59434.31     
    353300   296.68998      0.17665        0.00080906337 -0.0029151263   6.6986903     -36008.437      188.18438      17.436598      19.403579      299.31683      101268.59      18.575683      59357.441    
    353400   297.89704      0.1767         0.00017325291  0.0098385924   6.9345167     -36007.239      188.95         17.443771      19.340469      299.32955      100985.02      18.553478      59289.005    
    353500   301.84528      0.17675        0.0065038103  -0.0021282629   6.8817001     -36006.247      191.45428      17.490835      19.264504      299.34227      100864.05      18.625101      59520.413    
    353600   304.66487      0.1768        -0.0090784413  -0.0056853865   6.7991668     -36006.954      193.24269      17.53527       19.166427      299.35499      100609.76      18.552937      59292.317    
    353700   300.28277      0.17685       -0.0010033535   0.0023983151   6.628141      -36007.453      190.46322      17.610622      19.057976      299.36771      100474.63      18.517937      59182.976    
    353800   303.3584       0.1769        -0.00099847451  0.0063153981   6.3877763     -36011.469      192.41402      17.705019      18.948316      299.38043      100436.23      18.53112       59227.626    
    353900   298.93674      0.17695        0.0036736685  -0.0023233536   5.9562283     -36010.769      189.60945      17.822267      18.847857      299.39315      100569.62      18.614797      59497.595    
    354000   302.62332      0.177         -0.0015234827  -0.0090322928   5.4663917     -36016.771      191.94778      17.928756      18.757193      299.40587      100688.14      18.666077      59664.032    
    354100   300.7302       0.17705        0.0014770205   0.0041270033   5.0013944     -36019.725      190.74701      18.036314      18.650725      299.41859      100721.52      18.538883      59259.99     
    354200   303.94472      0.1771         0.013710441    0.0023816478   4.4043709     -36024.695      192.78591      18.161497      18.597536      299.43131      101135.65      18.56567       59348.137    
    354300   304.52888      0.17715       -0.013822056   -0.0032517373   3.8319873     -36028.973      193.15643      18.263175      18.553278      299.44402      101464.14      18.554662      59315.467    
    354400   305.46031      0.1772         0.00036981509 -0.0028494522   3.2547505     -36032.751      193.74722      18.358359      18.50965       299.45674      101757.44      18.56534       59352.123    
    354500   301.57786      0.17725        0.0028788188   0.010264621    2.4620499     -36033.976      191.28467      18.425145      18.509961      299.46946      102133.68      18.636001      59580.553    
    354600   299.29532      0.1773         0.0059776985  -0.0071879961   1.5850143     -36034.834      189.83689      18.518275      18.501136      299.48218      102605.32      18.647867      59621.021    
    354700   302.28558      0.17735       -0.013341353   -0.0052297813   0.71434154    -36038.564      191.73355      18.532927      18.501631      299.4949       102693.62      18.730291      59887.09     
    354800   295.49072      0.1774         0.0093957232   0.0075299735  -0.16948165    -36038.059      187.42372      18.575351      18.45135       299.50762      102653.33      18.671759      59702.48     
    354900   290.48103      0.17745        0.0022827802   0.004377342   -1.1834929     -36038.425      184.24617      18.615717      18.454153      299.52034      102896.41      18.665947      59686.431    
    355000   296.40931      0.1775        -0.011468466   -0.0061382876  -2.046201      -36039.572      188.00636      18.646972      18.443865      299.53306      103016.08      18.657569      59662.172    
    355100   296.8977       0.17755        0.0046430766  -0.0086065191  -2.8421201     -36033.744      188.31613      18.625716      18.437482      299.54578      102867.41      18.726734      59885.889    
    355200   302.88688      0.1776         0.0044920483   0.01250245    -3.7006602     -36033.306      192.11495      18.600796      18.454397      299.5585       102828.39      18.803246      60133.12     
    355300   300.35007      0.17765        0.012121516   -0.0033066362  -4.4940323     -36030.075      190.5059       18.567912      18.475718      299.57122      102769.56      18.770027      60029.432    
    355400   299.00655      0.1777        -0.015643891   -0.0014614265  -5.2561902     -36026.095      189.65373      18.52317       18.498942      299.58394      102655.14      18.62776       59576.97     
    355500   299.46235      0.17775        0.0043283972  -0.0012017606  -5.8557067     -36022.502      189.94284      18.446005      18.539259      299.59666      102454.65      18.678862      59742.946    
    355600   302.41996      0.1778         0.0061303353  -0.00052223762 -6.3665698     -36021.855      191.81879      18.355271      18.623056      299.60938      102415.85      18.632414      59596.916    
    355700   296.43022     