LAMMPS (4 May 2022)
  using 1 OpenMP thread(s) per MPI task
#uniaxial tensile test of CNT_14_11_1.699

##---------------INITIALIZATION-------------------------------

units          metal
dimension 	    3
boundary       p p p
atom_style 	atomic
newton 		on


##---------------ATOM DEFINITION------------------------------

read_data 	CNT_14_11_1.699.dat
Reading data file ...
  orthogonal box = (-50 -50 -0.0979919) to (50 50 276.87)
  4 by 4 by 8 MPI processor grid
  reading atoms ...
  5652 atoms
  read_data CPU = 0.054 seconds



##---------------FORCE FIELDS---------------------------------
#Set the formula(s) LAMMPS uses to compute pairwise interactions. In LAMMPS, pair potentials are defined between pairs #of atoms that are within a cutoff distance and the set of active interactions typically changes over time

pair_style 	airebo 3.0

#Specify the pairwise force field coefficients for one or more pairs of atom types. The number and meaning of the coefficients depends on the pair style.

pair_coeff     * * /ascldap/users/bcma/CH.airebo C
Reading airebo potential file /ascldap/users/bcma/CH.airebo with DATE: 2011-10-25


##---------------SETTINGS-------------------------------------

timestep 	0.0005
variable   ts equal 0.0005


##---------------COMPUTES-----stresses in 3 directions and min/max on x and z atom coordinates --------------------------

compute    1 all stress/atom NULL
compute    2 all reduce sum c_1[1] c_1[2] c_1[3]
compute    3 all property/atom x y # true atoms position
compute    4 all reduce min c_3[1] c_3[2]
compute    5 all reduce max c_3[1] c_3[2]


variable   Lx equal lx
variable   Ly equal ly
variable   Lz equal lz
variable   Vol equal vol
variable   thickn equal 3.4
#making the damp parameter timestep dependent
fix		1 all npt temp 300 300 0.05 iso 0 0 0.05 #$(100.0*dt)x 0 0 0.5 y 0 0 0.5 z 0 0 0.5
thermo 	2000
##---------------RELAXATION--------------------------------------

run            50000
Neighbor list info ...
  update every 1 steps, delay 10 steps, check yes
  max neighbors/atom: 2000, page size: 100000
  master list distance cutoff = 12.2
  ghost atom cutoff = 12.2
  binsize = 6.1, bins = 17 17 46
  1 neighbor lists, perpetual/occasional/extra = 1 0 0
  (1) pair airebo, perpetual
      attributes: full, newton on, ghost
      pair build: full/bin/ghost
      stencil: full/ghost/bin/3d
      bin: standard
Per MPI rank memory allocation (min/avg/max) = 3.755 | 3.797 | 3.923 Mbytes
   Step          Temp          E_pair         E_mol          TotEng         Press          Volume    
         0   0             -41803.031      0             -41803.031     -1997.414       2769679.9    
      2000   4.1569977     -41872.845      0             -41869.808     -60.167142      2689078.5    
      4000   279.14224     -41715.45       0             -41511.551      53.433717      2575762.6    
      6000   202.43182     -41636.528      0             -41488.661     -0.77207007     2823042.2    
      8000   336.32952     -41689.107      0             -41443.435     -3.0857172      2614496.2    
     10000   339.761       -41656.548      0             -41408.37       7.3836856      2659182.8    
     12000   313.40067     -41628.204      0             -41399.281     -0.66739574     2680081.5    
     14000   305.20066     -41670.487      0             -41447.554     -0.15922435     2658598.9    
     16000   301.57265     -41673.946      0             -41453.663     -32.971678      2666888.6    
     18000   303.35168     -41654.242      0             -41432.659     -25.26834       2672289.6    
     20000   300.048       -41658.953      0             -41439.783      54.72555       2647172.8    
     22000   293.98922     -41672.403      0             -41457.659      30.842015      2665139.7    
     24000   292.60704     -41665.533      0             -41451.798      47.049182      2675505.1    
     26000   299.28225     -41661.601      0             -41442.99      -12.226025      2647579.5    
     28000   303.23988     -41659.719      0             -41438.218     -63.731393      2653724.3    
     30000   300.45232     -41663.741      0             -41444.276      0.28022115     2666074.1    
     32000   302.10315     -41664.505      0             -41443.834      27.879499      2649040.3    
     34000   296.29787     -41666.044      0             -41449.614      11.117669      2668533.4    
     36000   305.83761     -41672.616      0             -41449.218     -26.759736      2664911.2    
     38000   299.49645     -41661.633      0             -41442.866     -3.5864682      2647184.3    
     40000   302.0416      -41658.407      0             -41437.781      33.253345      2661844.3    
     42000   294.05459     -41662.462      0             -41447.67       10.466234      2655685.8    
     44000   302.29522     -41663.762      0             -41442.951     -2.1851107      2663458.3    
     46000   302.32289     -41662.777      0             -41441.946     -35.888294      2655182.7    
     48000   295.63571     -41662.194      0             -41446.247     -13.063577      2657433.2    
     50000   299.68787     -41660.156      0             -41441.25       45.824987      2657938.8    
Loop time of 147.949 on 128 procs for 50000 steps with 5652 atoms

Performance: 14.600 ns/day, 1.644 hours/ns, 337.954 timesteps/s
99.8% CPU use with 128 MPI tasks x 1 OpenMP threads

MPI task timing breakdown:
Section |  min time  |  avg time  |  max time  |%varavg| %total
---------------------------------------------------------------
Pair    | 0.036884   | 32.422     | 131.62     | 985.1 | 21.91
Neigh   | 0.00070772 | 0.35587    | 1.4316     | 103.1 |  0.24
Comm    | 0.078904   | 2.7562     | 13.579     | 280.5 |  1.86
Output  | 0.0023567  | 0.0024229  | 0.0028098  |   0.1 |  0.00
Modify  | 4.7372     | 111.41     | 146.85     | 580.2 | 75.30
Other   |            | 1.006      |            |       |  0.68

Nlocal:        44.1562 ave         179 max           0 min
Histogram: 96 0 0 0 0 0 0 0 0 32
Nghost:        258.531 ave        1037 max           0 min
Histogram: 96 0 0 0 0 0 0 0 0 32
Neighs:              0 ave           0 max           0 min
Histogram: 128 0 0 0 0 0 0 0 0 0
FullNghs:      8706.69 ave       35356 max           0 min
Histogram: 96 0 0 0 0 0 0 0 0 32

Total # of neighbors = 1114456
Ave neighs/atom = 197.17905
Neighbor list builds = 384
Dangerous builds = 3


##---------------DEFORMATION--------------------------------------
unfix              1
reset_timestep     0
fix		1 all npt temp 300 300 0.05 x 0 0 0.05 y 0 0 0.05 #$(100.0*dt)
fix        2 all ave/time 1 100 100 c_2[1] c_2[2] c_2[3]
fix        3 all ave/time 1 100 100 v_Lx v_Ly v_Lz v_Vol
fix        4 all  ave/time 1 100 100 c_4[1] c_4[2]
fix        5 all ave/time 1 100 100 c_5[1] c_5[2]
variable   srate equal 1.0e9
variable   srate1 equal "v_srate / 1.0e12"
fix		6 all deform 1 z erate ${srate1} units box remap x
fix		6 all deform 1 z erate 0.001 units box remap x
run            100
Per MPI rank memory allocation (min/avg/max) = 3.756 | 3.798 | 3.924 Mbytes
   Step          Temp          E_pair         E_mol          TotEng         Press          Volume    
         0   299.68787     -41660.156      0             -41441.25       45.824987      2657938.8    
       100   303.30492     -41665.144      0             -41443.595     -15.891661      2658709.1    
Loop time of 0.385325 on 128 procs for 100 steps with 5652 atoms

Performance: 11.211 ns/day, 2.141 hours/ns, 259.521 timesteps/s
99.7% CPU use with 128 MPI tasks x 1 OpenMP threads

MPI task timing breakdown:
Section |  min time  |  avg time  |  max time  |%varavg| %total
---------------------------------------------------------------
Pair    | 9.0422e-05 | 0.077727   | 0.31878    |  48.2 | 20.17
Neigh   | 0          | 0          | 0          |   0.0 |  0.00
Comm    | 0.00013343 | 0.0056777  | 0.030231   |  13.0 |  1.47
Output  | 7.681e-05  | 8.2055e-05 | 9.6325e-05 |   0.0 |  0.02
Modify  | 0.049343   | 0.29981    | 0.38301    |  26.3 | 77.81
Other   |            | 0.002028   |            |       |  0.53

Nlocal:        44.1562 ave         179 max           0 min
Histogram: 96 0 0 0 0 0 0 0 0 32
Nghost:        258.656 ave        1038 max           0 min
Histogram: 96 0 0 0 0 0 0 0 0 32
Neighs:              0 ave           0 max           0 min
Histogram: 128 0 0 0 0 0 0 0 0 0
FullNghs:      8716.22 ave       35314 max           0 min
Histogram: 96 0 0 0 0 0 0 0 0 32

Total # of neighbors = 1115676
Ave neighs/atom = 197.3949
Neighbor list builds = 0
Dangerous builds = 0
##---------------THERMO-OUTPUTS--------------------------------------
variable cntdiameter equal ((f_5[1]-f_4[1])+(f_5[2]-f_4[2]))/2
#actual volume of cnt
variable   CorVol equal 3.14*v_cntdiameter*v_thickn*f_3[3]
#convertion factor of stress from barr to GPA
variable   ConvoFac equal 1/1.0e4
variable   sigmaxx equal f_2[1]*v_ConvoFac/v_CorVol
variable   sigmayy equal f_2[2]*v_ConvoFac/v_CorVol
variable   sigmazz equal f_2[3]*v_ConvoFac/v_CorVol
variable   StrainPerTs equal v_srate1*v_ts
variable   strain equal v_StrainPerTs*step
thermo 	100
thermo_style custom step temp v_strain v_sigmaxx v_sigmayy v_sigmazz pe ke lx ly lz vol v_cntdiameter v_CorVol
thermo_modify lost warn


##---------------DEFORMATION--------------------------------------
dump           1 all atom 5000 /ascldap/users/bcma/CNT_14_11_1.699/CNT_14_11_1.699.lammpstrj
run            1000000
Per MPI rank memory allocation (min/avg/max) = 4.756 | 4.798 | 4.924 Mbytes
   Step          Temp         v_strain      v_sigmaxx      v_sigmayy      v_sigmazz        PotEng         KinEng           Lx             Ly             Lz           Volume     v_cntdiameter     v_CorVol   
       100   303.30492      5e-05          0.0071674705   0.0135758      0.028471051   -41665.144      221.5488       98.616845      98.680185      273.2057       2658709.1      17.510889      51073.493    
       200   300.43946      0.0001        -0.011220176   -0.014505486    0.01231531    -41667.574      219.45573      98.45495       98.758028      273.21936      2656571.1      17.393485      50733.6      
       300   295.88358      0.00015        0.0023859812  -0.0066859814   0.15231613    -41666.101      216.12789      98.202082      98.753323      273.23302      2649754.3      17.394164      50738.118    
       400   298.77724      0.0002         0.0021052827   0.015191221    0.15572054    -41667.016      218.24156      98.051812      98.716698      273.24668      2644850.6      17.491871      51025.676    
       500   297.06675      0.00025        0.0078966795  -0.0042562516   0.23944895    -41664.161      216.99214      98.004668      98.690139      273.26034      2642999.8      17.536565      51158.612    
       600   298.4627       0.0003        -0.00968562    -0.01091102     0.21494065    -41661.218      218.0118       97.845683      98.663867      273.27401      2638141.7      17.470545      50968.562    
       700   300.96432      0.00035       -0.0015517044   0.013818242    0.29741707    -41661.604      219.83911      97.678844      98.480281      273.28767      2628874.3      17.475032      50984.201    
       800   302.79719      0.0004         0.0087039573   0.0017551735   0.30998366    -41665.258      221.17793      97.782761      98.45747       273.30133      2631193        17.471873      50977.531    
       900   298.28205      0.00045       -0.0027895175  -0.0071711469   0.42376789    -41668.549      217.87985      97.751433      98.320832      273.31499      2626830.9      17.511487      51095.667    
      1000   298.97646      0.0005        -0.0052747094  -0.0059934164   0.427979      -41669.059      218.38708      97.694708      98.17936       273.32865      2621660.1      17.595892      51344.514    
      1100   297.46724      0.00055        0.01078133     0.014407484    0.52637363    -41664.066      217.28468      97.622722      98.086219      273.34231      2617373.9      17.610225      51388.905    
      1200   302.59377      0.0006        -0.0027323453  -0.0020513355   0.50908341    -41665.561      221.02934      97.763915      98.012574      273.35597      2619322.3      17.643903      51489.755    
      1300   298.5241       0.00065       -0.0080372919  -0.015115328    0.55104533    -41662.534      218.05665      97.565471      97.775317      273.36963      2607808.2      17.655436      51525.985    
      1400   302.17015      0.0007         0.0030075584   0.015240696    0.62357419    -41664.346      220.71991      97.637044      97.612818      273.38329      2605514.1      17.572901      51287.677    
      1500   300.6583       0.00075        0.0030740804  -0.0008144631   0.66587322    -41660.595      219.61558      97.583595      97.516181      273.39695      2601639.8      17.481955      51024.796    
      1600   301.86406      0.0008        -0.012582814    0.00014769135  0.70675631    -41660.516      220.49632      97.689896      97.312147      273.41061      2599154.3      17.462656      50971.012    
      1700   301.23212      0.00085        0.013052199   -0.015734028    0.77741622    -41663.28       220.03472      97.632997      97.091117      273.42427      2591869.8      17.423247      50858.526    
      1800   297.9982       0.0009         0.012492193    0.015826597    0.84736024    -41665.997      217.67251      97.570751      97.166237      273.43793      2592350.9      17.385093      50749.688    
      1900   297.93497      0.00095       -0.022913036    0.00069795862  0.84458655    -41666.63       217.62633      97.583782      96.94785       273.45159      2586999.1      17.576418      51310.759    
      2000   298.96924      0.001          0.0092150216  -0.0069289815   0.92251451    -41663.862      218.38181      97.50985       96.747291      273.46525      2579820.2      17.522027      51154.531    
      2100   301.67462      0.00105        0.0059001041   0.0079712508   0.90179248    -41662.702      220.35795      97.369055      96.730115      273.47891      2575766.5      17.519401      51149.42     
      2200   305.03866      0.0011         0.0029142496  -0.0062359186   0.97555403    -41665.691      222.81521      97.381968      96.71159       273.49257      2575743.4      17.617295      51437.799    
      2300   299.01833      0.00115       -0.016687836   -0.0085733864   1.011416      -41662.239      218.41766      97.198149      96.634631      273.50623      2568963.9      17.653556      51546.246    
      2400   294.34602      0.0012         0.010359048    0.014015192    1.0503792     -41660.871      215.00478      97.076137      96.564903      273.51989      2564015.9      17.593823      51374.398    
      2500   297.99373      0.00125       -0.0032270811   0.0064985155   1.1176021     -41668.149      217.66924      96.961054      96.639556      273.53355      2563084.1      17.588715      51362.048    
      2600   295.51879      0.0013        -0.0060882501  -0.00711574     1.1725867     -41670.075      215.86143      96.900292      96.513461      273.54721      2558263.5      17.550913      51254.218    
      2700   297.51839      0.00135        0.0059303952  -0.0096320152   1.2376043     -41666.512      217.32203      96.791996      96.398626      273.56087      2552491.3      17.584287      51354.245    
      2800   298.7233       0.0014         0.012916991    0.010093831    1.2900348     -41662.587      218.20216      96.600396      96.394001      273.57453      2547443.6      17.608764      51428.298    
      2900   298.73985      0.00145       -0.014479199   -0.0059057859   1.2561731     -41660.934      218.21425      96.495926      96.410282      273.58819      2545245.5      17.615111      51449.404    
      3000   298.94624      0.0015        -0.0059778026  -0.0040606372   1.3256629     -41660.509      218.365        96.30524       96.310634      273.60185      2537717        17.558865      51287.685    
      3100   301.68652      0.00155        0.011552156    0.018842687    1.3689427     -41664.552      220.36664      96.331735      96.245833      273.61551      2536833.9      17.495735      51105.839    
      3200   296.0942       0.0016         0.00058700729 -0.011758508    1.4544545     -41665.18       216.28174      96.316706      96.156005      273.62917      2534197.3      17.483641      51073.06     
      3300   297.23951      0.00165       -0.0049923226  -0.010342643    1.4900911     -41666.879      217.11832      96.153487      96.102278      273.64283      2528615.5      17.474379      51048.555    
      3400   296.76486      0.0017         0.00047285744  0.015509789    1.5571764     -41662.367      216.77162      96.051045      95.939119      273.65649      2521759        17.479084      51064.848    
      3500   299.20446      0.00175        0.0042846242   0.0061598125   1.6022748     -41661.933      218.55362      96.186479      95.779027      273.67015      2521226.6      17.517293      51179.031    
      3600   303.89926      0.0018        -0.0056491228  -0.019015483    1.6461487     -41665.248      221.98293      96.192925      95.546907      273.68381      2515410.5      17.481707      51077.611    
      3700   294.86832      0.00185        0.0022207915   0.0060725888   1.6780192     -41660.082      215.38629      96.053717      95.450978      273.69747      2509373.7      17.479881      51074.825    
      3800   299.84748      0.0019         0.0042087422   0.0058209769   1.7398184     -41663.991      219.02331      96.083707      95.317419      273.71113      2506770        17.564471      51324.551    
      3900   301.41769      0.00195       -0.0043674297  -0.0013458627   1.794074      -41663.33       220.17028      96.111898      95.224665      273.72479      2505190.5      17.562446      51321.196    
      4000   304.62213      0.002         -0.0048630123  -0.0090573365   1.8044818     -41664.273      222.51095      96.010066      95.077785      273.73845      2498800.8      17.553453      51297.475    
      4100   299.5354       0.00205        0.012070049    0.016136964    1.8916356     -41662.015      218.79536      95.96913       94.886623      273.75212      2492837.8      17.553905      51301.356    
      4200   302.589        0.0021        -0.0061328711  -0.0024387861   1.8759556     -41667.953      221.02586      95.950521      94.843294      273.76578      2491340.7      17.584878      51394.44     
      4300   289.50159      0.00215       -0.0054999892  -0.012811441    1.9453772     -41660.901      211.46617      95.865078      94.68626       273.77944      2485124.9      17.588297      51406.998    
      4400   295.02426      0.0022         0.0070750722   0.0060911832   1.981528      -41660.387      215.5002       95.776684      94.541083      273.7931       2479150.3      17.553666      51308.338    
      4500   306.65239      0.00225        0.0061592894   0.0040559653   2.081052      -41663.96       223.99395      95.729102      94.555165      273.80676      2478411.4      17.458302      51032.14     
      4600   301.74849      0.0023        -0.010567147   -0.010029285    2.1019451     -41661.822      220.41191      95.61696       94.524227      273.82042      2474821.6      17.375285      50792.009    
      4700   297.24857      0.00235        0.0019544602   0.00069305732  2.183918      -41661.787      217.12494      95.412259      94.407117      273.83408      2466586.8      17.416164      50914.048    
      4800   299.66296      0.0024         0.0094193482   0.018075935    2.2089927     -41666.477      218.88853      95.320587      94.447028      273.84774      2465381.7      17.425688      50944.431    
      4900   296.76094      0.00245       -0.010246865   -0.01093682     2.2400104     -41667.042      216.76875      95.287093      94.326498      273.8614       2461493        17.379573      50812.148    
      5000   297.11457      0.0025         0.0030289195  -0.008285957    2.2911454     -41667.897      217.02707      95.054256      94.282827      273.87506      2454463.9      17.4353        50977.617    
      5100   297.54334      0.00255        0.011378146    0.011252537    2.3605633     -41662.13       217.34026      94.92551       94.295086      273.88872      2451580.4      17.488308      51135.155    
      5200   304.6533       0.0026        -0.014005619   -0.0068583869   2.3568826     -41663.116      222.53372      94.887771      94.215128      273.90238      2448649.9      17.596481      51454.014    
      5300   298.85147      0.00265       -0.0045134699  -0.0088585406   2.4301619     -41658.374      218.29578      94.668014      94.162993      273.91604      2441748.8      17.56188       51355.397    
      5400   302.36382      0.0027         0.0096628865   0.021069261    2.4678517     -41665.03       220.86138      94.617319      94.058599      273.9297       2437857.2      17.577419      51403.4      
      5500   298.00384      0.00275        0.00063191988 -0.00775513     2.5309442     -41664.718      217.67663      94.624142      93.972195      273.94336      2435914.9      17.566362      51373.629    
      5600   296.5645       0.0028        -0.0055184425  -0.0039646449   2.5285443     -41663.629      216.62527      94.492094      93.860175      273.95702      2429737        17.533224      51279.271    
      5700   300.61411      0.00285       -0.00047355474  0.007415449    2.6239269     -41664.006      219.5833       94.441647      93.626275      273.97068      2422508.9      17.554589      51344.316    
      5800   302.88138      0.0029         0.0070827345   0.0072096184   2.6486474     -41664.63       221.23943      94.46321       93.548547      273.98434      2421171.1      17.443485      51021.901    
      5900   300.32789      0.00295       -0.0035005438  -0.018849091    2.6912287     -41661.902      219.37423      94.435973      93.454412      273.998        2418157.9      17.422476      50962.989    
      6000   302.86069      0.003          0.0022200953   0.00073780835  2.7231335     -41663.057      221.22431      94.238988      93.43165       274.01166      2412646.4      17.536281      51298.441    
      6100   301.01099      0.00305       -0.0022397354   0.016885113    2.8089595     -41663.037      219.8732       94.200763      93.298933      274.02532      2408362.1      17.432713      50998.019    
      6200   296.43589      0.0031        -0.0031659894  -0.0069458283   2.8521437     -41664.027      216.53132      94.274826      93.112862      274.03898      2405568.7      17.415652      50950.649    
      6300   295.81352      0.00315        0.0024558182  -0.0067559016   2.9242417     -41666.104      216.07671      94.172937      92.961454      274.05264      2399181        17.425302      50981.421    
      6400   297.37612      0.0032         0.016200103    0.0014677294   2.9499264     -41663.694      217.21812      94.076157      92.810703      274.0663       2392948        17.406673      50929.456    
      6500   302.791        0.00325       -0.0091299113   0.0044670176   2.979295      -41661.895      221.17341      93.97997       92.923506      274.07996      2393526.1      17.522803      51271.791    
      6600   301.11235      0.0033        -0.018341129   -0.0036823461   3.0331282     -41660.191      219.94724      93.891861      92.644366      274.09362      2384217.6      17.615168      51544.622    
      6700   301.52979      0.00335        0.013821523    0.0048295781   3.0464844     -41660.942      220.25216      93.843136      92.560898      274.10728      2380952        17.645942      51637.243    
      6800   298.56403      0.0034         0.0017874917   0.0011553828   3.0626149     -41662.943      218.08582      93.783307      92.593121      274.12094      2380381        17.695483      51784.798    
      6900   300.52751      0.00345        0.0013271511  -0.018470001    3.1457205     -41667.58       219.52004      93.720003      92.413832      274.1346       2374286.6      17.72773       51881.752    
      7000   298.44427      0.0035         0.0032775612   0.0036957523   3.1491874     -41664.387      217.99834      93.538031      92.284443      274.14826      2366476.6      17.695085      51788.794    
      7100   297.82167      0.00355        0.0014928892   0.017717501    3.2460164     -41661.087      217.54356      93.514895      92.229561      274.16192      2364602.1      17.59129       51487.579    
      7200   299.31884      0.0036        -0.00881362    -0.0094714821   3.2681617     -41660.667      218.63717      93.377198      92.19038       274.17558      2360234.8      17.588168      51481.006    
      7300   301.61665      0.00365       -0.0038669677   0.0029744325   3.2990945     -41662.111      220.3156       93.187954      92.083419      274.18924      2352835.8      17.523515      51294.32     
      7400   301.2389       0.0037         0.0083470711   0.0092313881   3.4108175     -41661.191      220.03968      93.129896      92.055084      274.2029       2350763.5      17.389269      50903.896    
      7500   306.2001       0.00375       -0.011183659   -0.0097185732   3.4531749     -41664.155      223.66358      93.123912      91.990455      274.21656      2349079.2      17.371646      50854.84     
      7600   298.63194      0.0038         0.0040068189  -0.0086587198   3.5145757     -41662.19       218.13542      93.036913      91.799371      274.23023      2342126.3      17.435809      51045.217    
      7700   297.66583      0.00385        0.01233788     0.0066450255   3.5211061     -41666.012      217.42973      92.841285      91.770795      274.24389      2336590.4      17.497312      51227.826    
      7800   295.23004      0.0039        -0.0039873135   0.0049936725   3.5990109     -41663.276      215.65051      92.797242      91.683496      274.25755      2333376.5      17.475246      51165.77     
      7900   297.03611      0.00395       -0.010236629   -0.012810303    3.5595594     -41659.495      216.96975      92.587757      91.614183      274.27121      2326464.8      17.563617      51427.074    
      8000   297.64792      0.004          0.0069336385   0.01902862     3.6602105     -41658.208      217.41665      92.57295       91.430405      274.28487      2321542.3      17.524167      51314.118    
      8100   302.63729      0.00405        0.0036626073  -0.0036358836   3.6449036     -41660.915      221.06113      92.578901      91.40636       274.29853      2321196.5      17.549728      51391.527    
      8200   301.94332      0.0041        -0.018670008   -0.0011197831   3.7326623     -41661.824      220.55422      92.542795      91.244079      274.31219      2316287.2      17.610785      51572.889    
      8300   297.94491      0.00415        0.016106398   -0.0049020014   3.7778908     -41664.67       217.63359      92.521354      91.021457      274.32585      2310215.5      17.602654      51551.645    
      8400   296.67607      0.0042        -0.0033104919   0.010088664    3.8382033     -41665.088      216.70676      92.428038      90.975436      274.33951      2306833.4      17.523609      51322.707    
      8500   300.467        0.00425        0.0022478918  -0.010535286    3.8543741     -41664.804      219.47585      92.452586      90.752742      274.35317      2301912.4      17.551729      51407.624    
      8600   299.82411      0.0043         0.0044183553  -0.003000518    3.9384186     -41660.986      219.00625      92.277737      90.677377      274.36683      2295765.3      17.503445      51268.756    
      8700   302.34293      0.00435        0.00290858     1.2339312e-05  3.9678904     -41661.792      220.84611      92.242225      90.56118       274.38049      2292055.2      17.449061      51112.007    
      8800   300.7541       0.0044        -0.0046053516  -0.00042424965  4.033229      -41659.886      219.68556      92.082029      90.543653      274.39415      2287745.6      17.430647      51060.609    
      8900   300.59689      0.00445       -0.010571212    0.011408003    4.1090151     -41658.492      219.57072      92.056955      90.44802       274.40781      2284820.7      17.420435      51033.235    
      9000   296.72921      0.0045         0.0092843528  -0.0051719875   4.1084762     -41658.783      216.74558      91.98447       90.303618      274.42147      2279490.3      17.456682      51141.968    
      9100   298.49363      0.00455        0.01098771    -0.0068407416   4.1969464     -41664.976      218.0344       91.861124      90.239216      274.43513      2274923.4      17.453889      51136.332    
      9200   297.02109      0.0046        -0.013111159    0.002562931    4.1718615     -41663.958      216.95878      91.713181      90.181131      274.44879      2269910.6      17.482069      51221.443    
      9300   296.46291      0.00465       -0.0034186925   0.0097295331   4.2824127     -41658.68       216.55106      91.650388      90.010331      274.46245      2264173        17.45385       51141.306    
      9400   303.00692      0.0047        -0.0010517356  -0.0007100128   4.274953      -41661.344      221.33112      91.688351      89.802388      274.47611      2259990.4      17.507945      51302.364    
      9500   299.52675      0.00475        0.0043127576   0.0017548814   4.3144072     -41659.059      218.78904      91.538975      89.766898      274.48977      2255529.1      17.58193       51521.721    
      9600   301.70058      0.0048        -9.1227512e-05 -0.01071286     4.3317241     -41661.443      220.37691      91.605207      89.591767      274.50343      2252869.5      17.654546      51737.088    
      9700   299.09594      0.00485        0.011237831   -0.010984544    4.4400551     -41661.026      218.47436      91.505948      89.402571      274.51709      2245787.8      17.673679      51795.734    
      9800   296.96217      0.0049        -0.00069030919  0.01112746     4.4099533     -41661.852      216.91575      91.388957      89.38513       274.53075      2242590.6      17.736823      51983.376    
      9900   296.9903       0.00495       -0.0051720192   0.0012093978   4.4995888     -41662.2        216.93629      91.289953      89.298371      274.54441      2238098.1      17.654088      51743.469    
     10000   300.6101       0.005         -0.0083925748   0.00324548     4.5220743     -41661.013      219.58037      91.110496      89.27054       274.55807      2233113.5      17.59708       51578.949    
     10100   301.2045       0.00505        0.012787571    0.0072994902   4.5988883     -41656.889      220.01455      91.102192      89.053378      274.57173      2227588.9      17.514391      51339.131    
     10200   302.15251      0.0051        -0.0024706538  -0.010924111    4.5994531     -41657.669      220.70702      91.040867      89.075158      274.58539      2226744.6      17.576278      51523.102    
     10300   304.70593      0.00515       -0.014045912   -0.0040073583   4.6921102     -41662.933      222.57217      90.806643      88.984158      274.59905      2218857.2      17.563841      51489.205    
     10400   297.13922      0.0052         0.0099603416   0.010735303    4.7292107     -41660.431      217.04507      90.688837      88.897219      274.61271      2213923.7      17.461167      51190.759    
     10500   302.54536      0.00525        0.0025697523   0.00044803066  4.8224649     -41663.89       220.99398      90.637594      88.802369      274.62637      2210421.8      17.411273      51047.025    
     10600   295.93868      0.0053         0.0018670124  -0.011303884    4.8494715     -41656.703      216.16814      90.537389      88.6905        274.64003      2205306.3      17.449075      51160.397    
     10700   304.55204      0.00535       -0.0013788816   0.010684456    4.9006027     -41660.519      222.45976      90.406436      88.599773      274.65369      2199973.3      17.444924      51150.771    
     10800   300.95594      0.0054         0.0013005925  -0.00090972351  4.9184223     -41658.403      219.83299      90.322837      88.56129       274.66735      2197093.6      17.489399      51283.728    
     10900   295.13377      0.00545       -0.015770718    0.0054805517   4.9551937     -41658.672      215.58019      90.213054      88.468164      274.68101      2192224.6      17.53991       51434.399    
     11000   298.8231       0.0055         0.0084501369  -0.0059867281   4.9693086     -41663.18       218.27506      90.224024      88.188381      274.69467      2185666        17.588725      51580.11     
     11100   302.37087      0.00555        0.0076474654   0.0053503876   5.0341272     -41663.269      220.86652      90.166309      88.196273      274.70834      2184572        17.610789      51647.382    
     11200   306.11228      0.0056        -0.0049467391  -0.004503769    5.0608491     -41660.999      223.59944      90.093174      87.985672      274.722        2177696.1      17.541008      51445.292    
     11300   302.34119      0.00565        0.001685182    0.0029243358   5.1236403     -41658.345      220.84484      90.022608      87.921623      274.73566      2174514.5      17.531415      51419.715    
     11400   298.2078       0.0057         0.00039077616 -0.0026549873   5.1404101     -41656.45       217.82561      90.05112       87.622856      274.74932      2167919.5      17.582911      51573.317    
     11500   301.19001      0.00575        0.010077764   -0.0081737079   5.2641519     -41658.71       220.00396      89.935812      87.601781      274.76298      2164730.4      17.460659      51217.28     
     11600   297.91465      0.0058        -0.0068764362   0.002313849    5.2791592     -41656.558      217.61148      89.818789      87.47469       274.77664      2158884.5      17.385342      50998.888    
     11700   303.29647      0.00585       -7.3005008e-05  0.0042457121   5.3485397     -41660.466      221.54263      89.756176      87.42811       274.7903       2156338        17.439592      51160.57     
     11800   303.19316      0.0059        -0.0086842753   0.006857572    5.337989      -41662.562      221.46716      89.620936      87.295216      274.80396      2149923        17.401614      51051.696    
     11900   292.03656      0.00595        0.0081068876  -0.0048818357   5.3954313     -41662.57       213.31784      89.605515      87.131329      274.81762      2145624.1      17.413711      51089.726    
     12000   293.42164      0.006          0.01096586    -0.0032957412   5.4246649     -41662.279      214.32957      89.467206      87.104507      274.83128      2141759.3      17.449345      51196.817    
     12100   298.01524      0.00605       -0.011240387   -0.00098412795  5.49443       -41660.294      217.68495      89.308863      87.082993      274.84494      2137546.9      17.410341      51084.915    
     12200   296.07821      0.0061        -0.0044817715   0.0061978226   5.4943372     -41655.462      216.27005      89.134391      86.969325      274.8586       2130692.3      17.530744      51440.756    
     12300   299.52202      0.00615        0.00059674175  0.0049447766   5.5656486     -41654.709      218.78559      89.070615      86.89816       274.87226      2127531.2      17.613418      51685.915    
     12400   302.57138      0.0062        -0.0019726627  -0.0098349931   5.5482843     -41654.918      221.01298      89.022377      86.76595       274.88592      2123249.4      17.664305      51837.818    
     12500   300.92286      0.00625        0.0065178003  -0.0012508976   5.6472893     -41657.524      219.80883      88.844266      86.68418       274.89958      2117109.5      17.605979      51669.221    
     12600   297.23226      0.0063         0.0070941939   0.0026140773   5.6103355     -41660.59       217.11303      88.755506      86.642059      274.91324      2114071.8      17.568895      51562.951    
     12700   295.52993      0.00635       -0.005414336   -0.0033933377   5.7406783     -41658.224      215.86957      88.63718       86.603003      274.9269       2110406.5      17.529029      51448.505    
     12800   300.1277       0.0064        -0.0041610764   0.001368084    5.7565254     -41657.817      219.228        88.51319       86.411846      274.94056      2102907.1      17.534641      51467.533    
     12900   301.74051      0.00645        0.018390319    0.003535319    5.7958549     -41656.208      220.40608      88.423658      86.393239      274.95422      2100432        17.567962      51567.9      
     13000   300.47967      0.0065        -0.024057463   -0.0011034143   5.8673418     -41655.749      219.4851       88.287119      86.385867      274.96788      2097113.8      17.487136      51333.197    
     13100   297.0283       0.00655        0.0062454235   0.0023916638   5.9747866     -41658.815      216.96405      88.191235      86.146508      274.98154      2089135.7      17.428115      51162.483    
     13200   296.74113      0.0066         0.0021949879   0.0017702884   5.9702439     -41661.393      216.75428      88.095388      86.066958      274.9952       2085041.7      17.358133      50959.575    
     13300   295.1308       0.00665        0.0015777465  -0.0054527648   6.0320605     -41657.117      215.57802      88.011389      86.041467      275.00886      2082540.1      17.418616      51139.681    
     13400   298.2661       0.0067        -0.018868036    0.0083476032   6.0483952     -41656.652      217.8682       87.867451      85.872981      275.02252      2075165.9      17.401517      51092.015    
     13500   299.00697      0.00675        0.014946706    0.0035425341   6.1195654     -41656.547      218.40937      87.928234      85.675522      275.03618      2071929.3      17.384073      51043.336    
     13600   298.74224      0.0068         0.0065556639  -0.0096275538   6.2001687     -41655.519      218.21599      87.887816      85.573276      275.04984      2068608.2      17.400442      51093.935    
     13700   298.75112      0.00685       -0.0071573349  -0.0066731364   6.1587049     -41654.024      218.22248      87.769772      85.418618      275.0635       2062198.6      17.468359      51295.912    
     13800   301.99797      0.0069         0.0040785281   0.013740056    6.2490365     -41654.029      220.59414      87.647496      85.336068      275.07716      2057437.6      17.498872      51388.066    
     13900   303.30259      0.00695       -0.0070370979   0.0029346968   6.2595214     -41654.111      221.5471       87.674237      85.129863      275.09082      2053194.2      17.511869      51428.787    
     14000   301.34804      0.007          0.00096351653 -0.0030128933   6.3138451     -41657.036      220.1194       87.718612      84.882447      275.10448      2048364.8      17.562891      51581.189    
     14100   295.60427      0.00705        0.0033238876  -0.00093965043  6.3385461     -41656.557      215.92387      87.566279      84.790022      275.11814      2042682.5      17.582857      51642.393    
     14200   295.5101       0.0071         0.00067618028  0.0010547888   6.3527886     -41655.862      215.85508      87.582873      84.706358      275.1318       2041155.1      17.59106       51669.05     
     14300   299.90462      0.00715       -0.0048594972  -0.0042828103   6.4499528     -41656.364      219.06505      87.464864      84.563213      275.14546      2035061.1      17.484598      51358.896    
     14400   303.02991      0.0072         0.0029325401   0.00086411211  6.4654965     -41653.7        221.34792      87.346313      84.399256      275.15912      2028463.1      17.462453      51296.396    
     14500   302.92772      0.00725        0.017618701   -0.00185225     6.5623523     -41647.731      221.27327      87.278405      84.363354      275.17278      2026124.4      17.499183      51406.842    
     14600   304.42199      0.0073        -0.018130079   -0.0030134749   6.5684369     -41649.847      222.36476      87.019848      84.380965      275.18645      2020644.2      17.523615      51481.17     
     14700   297.40465      0.00735        0.0040358531   0.0062658366   6.6743046     -41652.543      217.23896      86.976651      84.179753      275.20011      2014925.2      17.430578      51210.389    
     14800   299.01329      0.0074         0.00059137523  0.0013855634   6.7001184     -41656.04       218.41398      86.845447      84.138159      275.21377      2010991.4      17.444544      51253.963    
     14900   296.57514      0.00745       -0.00088760602 -0.0018160836   6.7828856     -41656.002      216.63304      86.800266      84.070176      275.22743      2008420.9      17.433379      51223.702    
     15000   296.65154      0.0075        -0.0019759868  -0.015014825    6.779082      -41656.958      216.68885      86.582821      83.956018      275.24109      2000768.4      17.394253      51111.275    
     15100   298.81258      0.00755        0.0010344007   0.024784893    6.8872743     -41654.704      218.26737      86.43796       83.929507      275.25475      1996889.3      17.37751       51064.613    
     15200   302.89737      0.0076         0.0020536673  -0.0090633898   6.8690836     -41653.529      221.25111      86.494405      83.778765      275.26841      1994703.5      17.463143      51318.795    
     15300   302.05789      0.00765       -0.008773073   -0.0071574278   6.8767324     -41653.396      220.63791      86.271162      83.643624      275.28207      1986444.4      17.533484      51528.065    
     15400   299.28423      0.0077         0.010128664    0.013007392    6.9784364     -41653.634      218.61189      86.269562      83.457374      275.29573      1982082.7      17.50968       51460.662    
     15500   300.67834      0.00775       -0.0024694299  -0.0059205501   6.9598743     -41659.845      219.63021      86.132112      83.43091       275.30939      1978395.4      17.565272      51626.606    
     15600   293.72517      0.0078        -0.015280341    0.0018579982   7.0239932     -41659.543      214.55128      86.163263      83.218363      275.32305      1974167        17.573895      51654.514    
     15700   295.37236      0.00785        0.023028475   -0.0047616183   7.072937      -41657.26       215.75447      86.08312       82.992079      275.33671      1967065.2      17.542553      51564.949    
     15800   297.65684      0.0079        -0.0022521173   0.0050803244   7.1502633     -41654.548      217.42316      86.038264      83.033952      275.35037      1967129.8      17.490317      51413.956    
     15900   298.48561      0.00795       -0.0032998055  -0.013142573    7.1658184     -41652.284      218.02854      85.899513      82.810598      275.36403      1958771.7      17.529147      51530.658    
     16000   302.253        0.008          0.001404217    0.0081912605   7.240774      -41652.711      220.78042      85.707802      82.768388      275.37769      1953500.8      17.47702       51379.968    
     16100   305.47924      0.00805       -0.0054942902   0.014885202    7.2550242     -41653.335      223.13703      85.694467      82.605366      275.39135      1949446.6      17.467318      51353.992    
     16200   303.92355      0.0081         8.3067094e-05 -0.019875563    7.3176443     -41653.983      222.00068      85.671927      82.472295      275.40501      1945890.7      17.440589      51277.952    
     16300   296.35313      0.00815       -0.0012008169   0.012196855    7.3882103     -41653.816      216.47087      85.489944      82.385322      275.41867      1939805.8      17.451137      51311.51     
     16400   300.62015      0.0082         0.0088142513  -0.0059617355   7.3694984     -41657.667      219.58771      85.496399      82.259962      275.43233      1937096.5      17.487348      51420.532    
     16500   295.47533      0.00825        0.0029524643  -0.0038934421   7.4692252     -41650.852      215.82968      85.266111      82.25875       275.44599      1931946.1      17.475301      51387.655    
     16600   306.75116      0.0083        -0.007206738    0.0022193919   7.4515073     -41654.137      224.0661       85.127145      82.131713      275.45965      1925914.2      17.476434      51393.535    
     16700   299.90093      0.00835        0.003732       0.013265374    7.5036979     -41649.638      219.06236      85.016621      82.072503      275.47331      1922122.4      17.525743      51541.096    
     16800   298.66284      0.0084        -0.012416934   -0.0054569306   7.5284085     -41650.651      218.158        84.914345      81.995476      275.48697      1918103.4      17.552427      51622.131    
     16900   300.13578      0.00845        0.0033792608   0.00058202331  7.5174849     -41653.484      219.23391      84.828156      81.838737      275.50063      1912588.5      17.628811      51849.348    
     17000   300.33821      0.0085         0.0055639693  -0.00020868944  7.6050114     -41654.499      219.38177      84.66629       81.791935      275.51429      1907941.9      17.599315      51765.162    
     17100   298.28901      0.00855       -0.0079328303   0.00012125356  7.6001832     -41651.737      217.88493      84.630396      81.675991      275.52795      1904524        17.615932      51816.609    
     17200   305.63439      0.0086         0.0073389201  -0.0076471333   7.7101812     -41651.438      223.25036      84.617018      81.440017      275.54161      1898815.5      17.540385      51596.948    
     17300   306.01674      0.00865        0.012063602    0.0011169036   7.7502525     -41649.566      223.52964      84.36832       81.426918      275.55527      1893024        17.477042      51413.166    
     17400   301.00247      0.0087        -0.0064649144   0.0016958827   7.8789211     -41650.693      219.86698      84.335054      81.317895      275.56893      1889837.7      17.385786      51147.25     
     17500   302.45629      0.00875       -0.0044990236   0.00089386517  7.8683662     -41654.266      220.92892      84.105628      81.233025      275.58259      1882822.9      17.416894      51241.306    
     17600   301.25757      0.0088        -0.0071923201   0.0098195711   7.9446164     -41654.037      220.05331      84.145651      81.059719      275.59625      1879793.2      17.425178      51268.218    
     17700   300.4329       0.00885        0.019899438   -0.0206519      8.0197782     -41652.6        219.45093      84.125874      80.886889      275.60991      1875437.3      17.425199      51270.821    
     17800   302.26628      0.0089        -0.0097978342   0.0025442371   8.0685457     -41648.306      220.79013      83.846662      80.953977      275.62357      1870855.9      17.377358      51132.59     
     17900   305.34851      0.00895       -0.0036815298   0.013417298    8.1004981     -41648.879      223.04153      83.87135       80.724515      275.63723      1866194.7      17.386041      51160.677    
     18000   300.99296      0.009          0.0026230427  -0.006443444    8.1061861     -41650.423      219.86003      83.761371      80.615672      275.65089      1861327        17.41358       51244.253    
     18100   299.46536      0.00905        0.00518531     0.0039686739   8.1472925     -41652.106      218.7442       83.776644      80.451645      275.66456      1857970.5      17.486757      51462.146    
     18200   293.98774      0.0091         0.0017081416  -0.012617327    8.1520881     -41649.154      214.74307      83.672241      80.274098      275.67822      1851651.6      17.537096      51612.85     
     18300   300.42735      0.00915        0.0013822498   0.0049384035   8.184879      -41651.643      219.44688      83.594162      80.165158      275.69188      1847504.8      17.592511      51778.504    
     18400   304.82644      0.0092        -0.00013475365  0.0033086769   8.2097099     -41649.401      222.66019      83.465596      80.037507      275.70554      1841817.3      17.64236       51927.793    
     18500   303.02616      0.00925       -0.011147266    0.0014820781   8.2597015     -41646.322      221.34518      83.431008      79.936939      275.7192       1838831.8      17.599833      51805.187    
     18600   298.7714       0.0093        -0.00027514922  0.003636048    8.3300587     -41649.949      218.23729      83.308111      79.719797      275.73286      1831226.2      17.6163        51856.228    
     18700   298.23589      0.00935        0.0030755147   0.0097004766   8.3616976     -41653.117      217.84613      83.370599      79.600437      275.74652      1829946.6      17.564786      51707.15     
     18800   297.32191      0.0094        -0.0048315765  -0.014735209    8.444546      -41651.15       217.17851      83.2928        79.414889      275.76018      1824067.7      17.447757      51365.184    
     18900   302.46153      0.00945        0.0065216612  -0.0055287309   8.4538244     -41651.252      220.93274      83.228589      79.216825      275.77384      1818205.8      17.503732      51532.524    
     19000   301.43019      0.0095         0.006562401    0.012946123    8.5530945     -41648.38       220.17941      83.114631      79.158198      275.7875       1814462.3      17.473403      51445.78     
     19100   301.43549      0.00955       -0.0085559864  -0.010412858    8.6170915     -41648.766      220.18327      82.970384      79.096057      275.80116      1809981        17.4133        51271.363    
     19200   298.98648      0.0096        -0.0036629883   0.00042074515  8.7209554     -41649.675      218.3944       82.824541      78.941584      275.81482      1803360.1      17.342096      51064.241    
     19300   293.94617      0.00965        0.010395231    0.011981971    8.6876951     -41649.851      214.71271      82.759284      78.875371      275.82848      1800517.1      17.390622      51209.664    
     19400   300.5078       0.0097        -0.0069423503  -0.0051522594   8.7931155     -41653.304      219.50564      82.658617      78.876679      275.84214      1798445.8      17.333151      51042.958    
     19500   303.09394      0.00975       -0.010350815   -0.0010874914   8.7528806     -41650.518      221.39469      82.410686      78.759366      275.8558       1790473.3      17.322789      51014.97     
     19600   308.79348      0.0098         0.0151763      0.0084514322   8.8308426     -41652.131      225.55791      82.338855      78.688067      275.86946      1787381.8      17.349109      51095.012    
     19700   303.86254      0.00985       -0.0013249772  -0.0072891587   8.8368755     -41651.803      221.95611      82.164445      78.609214      275.88312      1781896.6      17.41802       51300.503    
     19800   299.22006      0.0099        -0.008823295   -0.0051701591   8.834539      -41653.52       218.56502      82.004947      78.547342      275.89678      1777125.8      17.511597      51578.663    
     19900   298.12382      0.00995        0.0089342047   0.017499292    8.8795506     -41650.421      217.76427      81.791701      78.492353      275.91044      1771351.4      17.546497      51684.019    
     20000   302.32822      0.01          -0.0066146832  -0.0072177209   8.872894      -41648.77       220.83537      81.713423      78.500839      275.9241       1769935.1      17.590276      51815.536    
     20100   301.66541      0.01005       -0.0042572745  -0.0034418827   8.9540091     -41648.059      220.35122      81.573497      78.351604      275.93776      1763632.6      17.586244      51806.225    
     20200   301.296        0.0101         0.011936908   -0.00016725698  9.0418781     -41649.027      220.08138      81.42688       78.263016      275.95142      1758559.3      17.434453      51361.614    
     20300   292.70715      0.01015        0.003875769    0.00065508404  9.1185884     -41647.734      213.80767      81.401588      78.189416      275.96508      1756446.7      17.38195       51209.475    
     20400   290.91321      0.0102        -0.015360414   -0.016528339    9.1293876     -41650.127      212.49729      81.249343      77.982556      275.97874      1748610        17.438839      51379.623    
     20500   292.96961      0.01025        0.012076999    0.025106698    9.1927554     -41648.259      213.99938      81.158108      77.864698      275.9924       1744093        17.429415      51354.399    
     20600   298.4566       0.0103        -0.0042693465  -0.0086284001   9.2715797     -41648.484      218.00735      81.206666      77.741461      276.00606      1742460.7      17.357818      51145.975    
     20700   300.81588      0.01035       -0.003107426   -0.006583169    9.3018787     -41647.438      219.73068      81.066796      77.594978      276.01972      1736267.9      17.40895       51299.176    
     20800   301.72942      0.0104         0.010705605    0.0061861754   9.3483883     -41646.735      220.39798      81.015032      77.401141      276.03338      1730910.4      17.408261      51299.686    
     20900   298.21203      0.01045        0.00020310707 -8.8739099e-05  9.403693      -41646.717      217.82871      80.979182      77.33262       276.04704      1728698.3      17.395406      51264.341    
     21000   295.27418      0.0105        -0.016275839   -0.010231113    9.3766477     -41649.399      215.68276      80.867978      77.146168      276.0607       1722247.4      17.482075      51522.306    
     21100   298.18062      0.01055        0.010926482    0.012221439    9.3494459     -41650.946      217.80576      80.853629      76.901234      276.07436      1716559.7      17.5393        51693.515    
     21200   298.18947      0.0106         0.0010125424   0.0008745967   9.4005293     -41645.556      217.81222      80.87186       76.732391      276.08802      1713261.8      17.595214      51860.874    
     21300   298.81174      0.01065       -0.0043538664  -0.0038719335   9.4039052     -41644.199      218.26676      80.824684      76.56323       276.10168      1708572.1      17.587944      51842.011    
     21400   300.94338      0.0107         0.0050037636   0.0016448563   9.5028065     -41646.619      219.82381      80.733135      76.437938      276.11534      1703928.3      17.597982      51874.166    
     21500   297.64919      0.01075        0.0047746554  -0.004403617    9.5314627     -41646.053      217.41758      80.701253      76.316564      276.129        1700635        17.605643      51899.316    
     21600   297.31454      0.0108        -0.017227696   -0.0022779226   9.5499133     -41648.308      217.17313      80.523254      76.224477      276.14267      1694920.3      17.565055      51782.23     
     21700   294.69436      0.01085        0.0099463866   0.011660232    9.653516      -41648.229      215.25923      80.411021      76.056286      276.15633      1688906.8      17.488443      51558.927    
     21800   302.91706      0.0109         0.0020379394   0.0025741233   9.7837083     -41649.989      221.26549      80.32505       76.027142      276.16999      1686538.1      17.368089      51206.635    
     21900   298.26816      0.01095       -0.013311586   -0.017833609    9.8386531     -41641.189      217.8697       80.217093      75.868889      276.18365      1680848.6      17.335284      51112.444    
     22000   302.11637      0.011          0.015263558    0.0068426173   9.8802695     -41643.748      220.68062      80.002551      75.834668      276.19731      1675679.9      17.324007      51081.718    
     22100   302.03609      0.01105       -0.0044390275   0.0063003966   9.9129779     -41647.201      220.62198      79.893691      75.821838      276.21097      1673199.4      17.3242        51084.816    
     22200   297.19327      0.0111         0.00067936662 -0.0077117792   9.9275237     -41647.092      217.08455      79.70512       75.754087      276.22463      1667841.1      17.36704       51213.673    
     22300   298.47587      0.01115       -0.0038699592   0.006076523    9.9324321     -41647.962      218.02142      79.492742      75.694023      276.23829      1662160.4      17.435489      51418.063    
     22400   297.69145      0.0112         0.0059649802   0.0055778696   10.026067     -41645.682      217.44845      79.453282      75.604062      276.25195      1659442.9      17.419292      51372.84     
     22500   295.95808      0.01125       -0.0083132958  -0.026637222    9.9695223     -41642.31       216.18231      79.229274      75.536082      276.26561      1653358.2      17.463506      51505.783    
     22600   301.70971      0.0113         0.0064927898   0.021690496    10.059121     -41645.302      220.38358      79.036977      75.49682       276.27927      1648569.6      17.461141      51501.353    
     22700   301.55326      0.01135        0.0009935911  -0.0027526852   10.048315     -41644.532      220.2693       78.950633      75.352742      276.29293      1643707.2      17.521185      51681.008    
     22800   300.9268       0.0114        -0.0084764212  -0.0015280144   10.089521     -41642.665      219.81171      78.814124      75.347201      276.30659      1640825.6      17.567831      51821.158    
     22900   300.86502      0.01145        0.0074516366   0.0011579751   10.119673     -41641.853      219.76658      78.73886       75.068094      276.32025      1633267.1      17.596131      51907.202    
     23000   298.96572      0.0115         0.011000039   -0.0012316634   10.144918     -41642.964      218.37923      78.715558      75.070581      276.33391      1632918.6      17.583545      51872.64     
     23100   296.52126      0.01155       -0.018585804   -0.0053273257   10.247647     -41644.99       216.59368      78.576359      74.898277      276.34757      1626370.1      17.545051      51761.638    
     23200   297.82088      0.0116         0.011041735    0.0014613365   10.326768     -41645.623      217.54299      78.539939      74.659949      276.36123      1620523.6      17.453895      51495.252    
     23300   304.11528      0.01165       -0.00031785317  0.009099267    10.406888     -41644.152      222.14073      78.471151      74.603507      276.37489      1617960.3      17.43013       51427.681    
     23400   300.13172      0.0117        -0.017858925   -0.0045107416   10.422119     -41638.995      219.23094      78.447161      74.374167      276.38855      1612573        17.385291      51297.919    
     23500   304.1375       0.01175        0.022160234   -0.0027403385   10.455914     -41643.678      222.15695      78.346541      74.19944       276.40221      1606800.5      17.454312      51504.12     
     23600   301.08009      0.0118        -0.0051655706   0.010384765    10.48951      -41645.135      219.92367      78.284612      74.178057      276.41587      1605147.1      17.476242      51571.381    
     23700   301.48732      0.01185       -0.0096296825  -0.0098042905   10.539113     -41647.177      220.22113      78.269727      73.944511      276.42953      1599868.2      17.45364       51507.228    
     23800   297.82622      0.0119         0.0073824855   0.0080580049   10.53982      -41644.679      217.54689      78.142684      73.803288      276.44319      1594299.6      17.483171      51596.926    
     23900   298.06446      0.01195       -0.0026382341   0.0017440223   10.594035     -41640.005      217.72091      78.135467      73.645133      276.45685      1590814.8      17.479099      51587.459    
     24000   301.77291      0.012         -0.0024839248  -0.015946762    10.642846     -41637.797      220.42974      78.008666      73.49102       276.47051      1584987.9      17.487141      51613.743    
     24100   302.57583      0.01205        0.0091825138   0.012201193    10.639341     -41639.803      221.01624      77.795178      73.38418       276.48417      1578430.3      17.555655      51818.523    
     24200   299.35254      0.0121        -0.00042129128 -0.0024340316   10.678831     -41642.048      218.66179      77.802036      73.308027      276.49783      1577009.2      17.575743      51880.381    
     24300   299.75113      0.01215       -0.0084454739  -0.0096881978   10.751518     -41643.105      218.95294      77.569312      73.239885      276.51149      1570908.1      17.547879      51800.69     
     24400   302.37794      0.0122         0.0045911462   0.014854258    10.804756     -41643.794      220.87168      77.466421      73.11692       276.52515      1566267.8      17.513081      51700.521    
     24500   301.23357      0.01225        0.008975921   -0.0061042476   10.824246     -41642.176      220.03578      77.416345      73.105192      276.53881      1565081.6      17.491594      51639.64     
     24600   302.7457       0.0123        -0.015701136   -0.0020280164   10.865128     -41643.365      221.14032      77.184621      73.00926       276.55247      1558426.3      17.518977      51723.037    
     24700   297.26165      0.01235        0.008547068    0.0027973266   10.896033     -41640.945      217.1345       77.017696      72.836866      276.56613      1551460.7      17.485079      51625.507    
     24800   300.72565      0.0124         0.0050476755   0.0043905288   11.002998     -41643.064      219.66478      76.937134      72.84895       276.57979      1550171.5      17.467014      51574.717    
     24900   305.70092      0.01245       -0.0080128216  -0.01496224     11.060877     -41642.646      223.29896      76.796813      72.688583      276.59345      1544014.2      17.391665      51354.77     
     25000   305.33165      0.0125         0.0071587769   0.0063407267   11.114659     -41639.697      223.02923      76.657821      72.60183       276.60711      1539456.4      17.386013      51340.616    
     25100   299.89755      0.01255       -0.0045707929   0.0099309503   11.163955     -41639.562      219.05989      76.522349      72.573671      276.62078      1536215.6      17.408737      51410.26     
     25200   297.0245       0.0126        -0.011008597    0.00051106459  11.181539     -41642.426      216.96127      76.445175      72.409008      276.63444      1531259.9      17.424109      51458.197    
     25300   297.39858      0.01265        0.0012308287   0.0067740358   11.165474     -41641.519      217.23452      76.31678       72.278595      276.6481       1526010.2      17.486976      51646.411    
     25400   295.71481      0.0127         0.0067988424  -0.0061348874   11.225271     -41636.586      216.00461      76.180285      72.214989      276.66176      1522015.5      17.4666        51588.779    
     25500   302.49776      0.01275        0.00501008    -0.0099077303   11.198972     -41637.61       220.95921      76.040218      72.089065      276.67542      1516642.8      17.544438      51821.237    
     25600   303.29646      0.0128         0.0044694304   0.0059557014   11.273996     -41637.881      221.54262      75.890221      72.073282      276.68908      1513394.4      17.531835      51786.566    
     25700   303.09676      0.01285       -0.0025806301  -0.0058631386   11.298422     -41640.381      221.39675      75.789896      71.964155      276.70274      1509179.8      17.567745      51895.202    
     25800   302.84327      0.0129        -0.0062429046  -5.4531941e-05  11.287198     -41641.517      221.21159      75.695075      71.812897      276.7164       1504197.9      17.595553      51979.914    
     25900   299.87311      0.01295        0.001714932    0.010320167    11.466773     -41640.202      219.04204      75.681477      71.61735       276.73006      1499906.5      17.475268      51627.122    
     26000   300.00815      0.013         -0.010071545    0.00066294615  11.477091     -41640.413      219.14067      75.685052      71.438647      276.74372      1496308.4      17.479067      51640.895    
     26100   295.55206      0.01305        0.0044177246  -0.0092460562   11.47919      -41636.655      215.88573      75.594916      71.205968      276.75738      1489732.2      17.538203      51818.167    
     26200   304.39916      0.0131         0.016751097    0.0055767314   11.583631     -41638.378      222.34808      75.571274      71.017906      276.77104      1485406.3      17.44695       51551.095    
     26300   305.51652      0.01315       -0.0074839479  -0.0078302772   11.596295     -41636.775      223.16426      75.568634      70.891268      276.7847       1482778.9      17.485214      51666.707    
     26400   299.64334      0.0132        -0.0030928932   0.0018321795   11.682094     -41634.588      218.8742       75.39741       70.78967       276.79836      1477371.9      17.443502      51545.995    
     26500   300.34639      0.01325       -0.0021025055   0.016134425    11.680545     -41641.126      219.38775      75.396176      70.630082      276.81202      1474089.9      17.483403      51666.455    
     26600   298.88065      0.0133        -0.0041244519  -0.021358752    11.765163     -41640.653      218.31709      75.3801        70.438568      276.82568      1469852        17.463049      51608.851    
     26700   299.93953      0.01335        0.0072068312  -0.0015772164   11.793432     -41639.333      219.09055      75.117948      70.315545      276.83934      1462254.2      17.459094      51599.71     
     26800   301.25887      0.0134         0.0069651756   0.013820425    11.81015      -41635.684      220.05427      75.054713      70.263799      276.853        1460020.1      17.541784      51846.655    
     26900   304.25286      0.01345       -0.0055607881  -0.012962231    11.81287      -41635.908      222.24122      74.886295      70.163353      276.86666      1454733.2      17.532086      51820.549    
     27000   298.90278      0.0135        -5.3320835e-05  0.0080173247   11.909429     -41633.601      218.33326      74.713738      70.110463      276.88032      1450358.6      17.467516      51632.242    
     27100   297.97127      0.01355       -2.5192782e-05  0.0079301264   11.956532     -41634.041      217.65284      74.607345      70.039308      276.89398      1446894.8      17.478977      51668.668    
     27200   301.26831      0.0136        -0.01258328    -0.0075725304   11.98831      -41638.571      220.06116      74.44057       69.983874      276.90764      1442589        17.470007      51644.701    
     27300   299.12791      0.01365        0.0050659066   0.0064772729   11.996031     -41638.545      218.4977       74.337149      69.823724      276.9213       1437359.1      17.516566      51784.894    
     27400   298.85448      0.0137         0.010748016   -0.0051858026   12.061696     -41638.535      218.29798      74.194823      69.76246       276.93496      1433419.1      17.490972      51711.779    
     27500   300.66795      0.01375       -0.0024488796  -0.012423198    12.122467     -41634.884      219.62263      73.99349       69.753036      276.94862      1429406.8      17.444866      51578.01     
     27600   303.05299      0.0138         0.0022085819   0.0046226351   12.233892     -41632.75       221.36478      73.747296      69.646665      276.96228      1422548.4      17.382814      51397.081    
     27700   303.50429      0.01385       -0.0027155232   0.011350982    12.309284     -41633.313      221.69443      73.702728      69.597939      276.97594      1420764.1      17.307757      51177.678    
     27800   297.30118      0.0139        -0.0086388382  -0.0031580496   12.33981      -41633.95       217.16338      73.583265      69.496405      276.9896       1416461.8      17.302777      51165.476    
     27900   304.54404      0.01395        0.0036133708   0.0030970811   12.37177      -41641.627      222.45391      73.407772      69.348272      277.00326      1410141.1      17.29347       51140.477    
     28000   299.03697      0.014          0.011447319   -0.00078273095  12.382884     -41637.404      218.43128      73.399352      69.259849      277.01692      1408251        17.353762      51321.305    
     28100   300.48272      0.01405       -0.012226246   -0.01321802     12.38484      -41635.554      219.48733      73.256528      69.125348      277.03058      1402850.5      17.42521       51535.142    
     28200   301.66927      0.0141         0.0019995053   0.014465484    12.366225     -41629.947      220.35404      73.108071      68.9443        277.04424      1396409.6      17.492034      51735.328    
     28300   303.59681      0.01415        0.0051277317  -0.0023025089   12.449185     -41629.635      221.76201      73.04188       68.90214       277.0579       1394360.9      17.490613      51733.675    
     28400   302.98471      0.0142        -0.0064265105   1.5952275e-05  12.460902     -41632.308      221.3149       72.890747      68.766412      277.07156      1388803.2      17.510528      51795.133    
     28500   300.67591      0.01425       -0.0035794627   0.010916469    12.459113     -41634.254      219.62844      72.883063      68.590595      277.08522      1385174.7      17.556001      51932.2      
     28600   296.7924       0.0143         0.0087943427  -0.0048019842   12.489076     -41633.457      216.79174      72.860324      68.418654      277.09889      1381339.4      17.56825       51970.997    
     28700   297.16993      0.01435       -0.0056909541  -0.0010201035   12.506536     -41634.121      217.0675       72.753659      68.291949      277.11255      1376830.7      17.580226      52008.987    
     28800   302.91241      0.0144        -0.00022139829  0.0077235617   12.651924     -41633.827      221.26209      72.694737      68.088201      277.12621      1371678.8      17.504713      51788.144    
     28900   306.74563      0.01445        0.0088109942  -0.0077721288   12.613642     -41631.591      224.06206      72.683675      67.925036      277.13987      1368250.9      17.51955       51834.593    
     29000   306.42765      0.0145         1.9107365e-05 -0.013257471    12.767635     -41633.47       223.82979      72.559182      67.78969       277.15353      1363252.9      17.44601       51619.558    
     29100   303.70681      0.01455        0.00035579391  0.01000721     12.855921     -41634.788      221.84236      72.500177      67.608512      277.16719      1358570.7      17.342457      51315.694    
     29200   299.02007      0.0146         0.0021868625   0.00080784502  12.893702     -41632.598      218.41893      72.413864      67.54139       277.18085      1355672.9      17.352405      51347.658    
     29300   297.72141      0.01465       -0.015672653    0.00448176     12.936257     -41631.226      217.47033      72.308304      67.372687      277.19451      1350382.1      17.373491      51412.587    
     29400   297.27132      0.0147         0.0094323624   0.00069330456  12.945147     -41631.1        217.14157      72.302173      67.159747      277.20817      1346066.2      17.416589      51542.668    
     29500   296.80774      0.01475        0.014701191   -0.010678457    12.967177     -41633.493      216.80294      72.164143      67.101011      277.22183      1342387.6      17.475781      51720.389    
     29600   297.67182      0.0148        -0.016664621    0.0053063703   12.877563     -41634.576      217.43411      71.994026      67.004733      277.23549      1337367.5      17.55935       51970.276    
     29700   294.5846       0.01485        0.011297144    0.0020535394   12.924979     -41627.991      215.17905      71.874704      66.916157      277.24915      1333451.7      17.630633      52183.821    
     29800   305.43819      0.0149        -0.0085752901   0.0012990086   12.927029     -41631.613      223.10705      71.700016      66.886063      277.26281      1329678.1      17.635942      52202.107    
     29900   300.54937      0.01495       -0.014306903    0.0081629132   13.002758     -41629.136      219.53601      71.555252      66.769216      277.27647      1324740.5      17.59772       52091.537    
     30000   302.89939      0.015          0.015329578    0.0010520971   13.08747      -41634.757      221.25258      71.490032      66.66195       277.29013      1321471.9      17.561653      51987.336    
     30100   299.34855      0.01505       -0.0016205223  -0.0093381741   13.145444     -41632.268      218.65887      71.297679      66.614842      277.30379      1317049.8      17.532035      51902.215    
     30200   299.09945      0.0151         0.00071369556  0.0017471147   13.19754      -41631.46       218.47692      71.120542      66.535207      277.31745      1312271.7      17.504622      51823.614    
     30300   299.46547      0.01515        0.010563507   -0.0058297633   13.29992      -41630.814      218.74428      70.94174       66.509032      277.33111      1308522.1      17.464661      51707.853    
     30400   298.67688      0.0152        -0.0056665463  -0.010070774    13.325773     -41627.894      218.16825      70.752795      66.45515       277.34477      1304043.9      17.468583      51722.013    
     30500   307.88546      0.01525        0.0059973128   0.0076495853   13.43025      -41627.632      224.89465      70.521954      66.416002      277.35843      1299087.6      17.406795      51541.607    
     30600   307.57836      0.0153        -0.013632353    0.010348065    13.48696      -41626.003      224.67033      70.413126      66.348147      277.37209      1295821.5      17.342005      51352.291    
     30700   302.8088       0.01535       -0.0021065812  -0.00043337299  13.528127     -41628.057      221.18641      70.336132      66.200927      277.38575      1291596        17.371318      51441.626    
     30800   297.22194      0.0154         0.0078894473  -0.0025232764   13.593609     -41627.506      217.10549      70.259851      66.004151      277.39941      1286423.6      17.344775      51365.553    
     30900   297.62352      0.01545        0.006613323   -0.0067366669   13.591774     -41629.362      217.39883      70.227917      65.876105      277.41307      1283407.6      17.381459      51476.725    
     31000   300.78066      0.0155        -0.005339791   -0.0016874707   13.589664     -41630.078      219.70496      70.098993      65.739665      277.42673      1278461.2      17.449426      51680.559    
     31100   304.39115      0.01555        0.0028699587   0.0079724448   13.679748     -41627.411      222.34224      70.031793      65.602101      277.44039      1274625.7      17.410218      51566.977    
     31200   306.77257      0.0156        -0.0076818427   0.002646357    13.566472     -41627.987      224.08174      70.027861      65.407807      277.45405      1270841.9      17.553514      51993.963    
     31300   302.91322      0.01565       -0.0058639949   0.0016100868   13.619189     -41628.553      221.26268      69.991226      65.220303      277.46771      1266598.2      17.570965      52048.214    
     31400   305.1719       0.0157         0.0055277152   0.0041205158   13.705817     -41631.881      222.91253      69.958646      65.012457      277.48137      1262036.2      17.516844      51890.452    
     31500   298.569        0.01575        0.0021560708  -0.0069886467   13.744661     -41628.831      218.08945      69.984499      64.830012      277.49503      1259021.6      17.50136       51847.137    
     31600   297.15068      0.0158        -0.002285822   -0.0049667351   13.794392     -41626.508      217.05344      69.8733        64.623905      277.50869      1253086.5      17.528784      51930.935    
     31700   302.23206      0.01585        0.01404737     0.0030226667   13.797394     -41624.949      220.76513      69.866412      64.449717      277.52235      1249647.2      17.536381      51955.999    
     31800   304.74726      0.0159        -0.0070686684  -0.010678335    13.861319     -41624.662      222.60236      69.777974      64.354731      277.53601      1246287.3      17.525009      51924.864    
     31900   299.95843      0.01595       -0.0066780843   0.01028993     13.977058     -41623.93       219.10436      69.631519      64.220623      277.54967      1241141        17.434432      51659.035    
     32000   300.13942      0.016          0.0023832639   0.012157886    13.973759     -41628.624      219.23657      69.59347       64.076128      277.56333      1237732.7      17.488118      51820.66     
     32100   299.63921      0.01605       -0.0098838573  -0.0065229229   14.044245     -41628.342      218.87119      69.524156      63.964063      277.577        1234398.1      17.431714      51656.065    
     32200   301.31773      0.0161         0.012347238   -0.011797016    14.084486     -41628.297      220.09726      69.315637      63.85165       277.59066      1228593.4      17.452569      51720.413    
     32300   299.95676      0.01615        0.012246546    0.004851102    14.157824     -41624.538      219.10314      69.115847      63.848146      277.60432      1225045.3      17.439013      51682.783    
     32400   297.97156      0.0162        -0.015136921   -0.0051557117   14.194745     -41619.577      217.65305      68.943675      63.810544      277.61798      1221334        17.382891      51518.993    
     32500   303.0351       0.01625        0.0015527665   0.0053097214   14.21091      -41621.28       221.35171      68.705387      63.746079      277.63164      1215943        17.415696      51618.76     
     32600   293.69079      0.0163         0.0018696186   0.013019724    14.253981     -41620.321      214.52617      68.557844      63.763214      277.6453       1213717.6      17.421379      51638.143    
     32700   296.03036      0.01635       -0.0086551626  -0.014862353    14.299668     -41625.517      216.2351       68.39733       63.696448      277.65896      1209667.6      17.420846      51639.105    
     32800   297.95677      0.0164         0.0083637391   0.010085244    14.329607     -41626.254      217.64225      68.119571      63.669416      277.67262      1204303.2      17.457391      51749.978    
     32900   300.29538      0.01645       -0.0040497085  -0.00047321257  14.331598     -41625.747      219.35048      68.061777      63.568368      277.68628      1201430.8      17.44085       51703.487    
     33000   302.92399      0.0165        -0.0045239391  -0.01257456     14.310643     -41622.552      221.27055      67.894288      63.449717      277.69994      1196296.2      17.528163      51964.885    
     33100   302.86208      0.01655        0.011515939    0.015250632    14.333424     -41620.487      221.22533      67.745076      63.355008      277.7136       1191943.9      17.560241      52062.546    
     33200   304.55027      0.0166        -0.0038869444  -0.0066392717   14.428924     -41625.329      222.45846      67.668279      63.274671      277.72726      1189141.5      17.512256      51922.834    
     33300   299.53182      0.01665       -0.0073225451  -0.012158599    14.575563     -41625.693      218.79274      67.504901      63.137136      277.74092      1183750.2      17.392258      51569.583    
     33400   300.42496      0.0167         0.015394539    0.017816014    14.593258     -41625.392      219.44514      67.411871      63.006922      277.75458      1179738.8      17.40996       51624.61     
     33500   300.02103      0.01675       -0.011346106   -0.0082905015   14.590531     -41622.676      219.15008      67.38875       62.935417      277.76824      1178053.7      17.453191      51755.345    
     33600   298.44643      0.0168        -0.0042177604  -0.00083013252  14.668535     -41620.003      217.99992      67.280837      62.695181      277.7819       1171735.2      17.415635      51646.516    
     33700   307.45524      0.01685        0.0108436      0.01092635     14.712237     -41625.299      224.5804       67.260278      62.535097      277.79556      1168443.7      17.417638      51654.996    
     33800   296.19393      0.0169        -0.00087178351 -0.011862299    14.746909     -41618.737      216.35458      67.246528      62.364241      277.80922      1165070.4      17.418352      51659.655    
     33900   299.4281       0.01695        0.00051367077 -0.00031475811  14.832308     -41624.784      218.71698      67.124801      62.187612      277.82288      1159724.7      17.374391      51531.809    
[...]
    797300   301.75183      0.39865       -2.8851044e-05  0.0089950249   0.037287227   -41329.399      220.41434      20.200662      18.813381      382.1055       145216.43      20.225278      82504.664    
    797400   298.06897      0.3987         0.0037448023  -8.0538365e-06  0.10146973    -41331.428      217.72421      20.213531      18.816787      382.11916      145340.44      19.945285      81365.404    
    797500   298.09666      0.39875       -0.0023457171  -0.0029312303   0.078326401   -41330.902      217.74443      20.223634      18.829867      382.13282      145519.37      19.89928       81180.632    
    797600   298.83153      0.3988        -0.0044273682  -0.0035507485   0.076025743   -41329.403      218.28122      20.198998      18.816643      382.14648      145245.22      19.816039      80843.935    
    797700   299.19309      0.39885        0.0090028554   0.0073699637   0.22553321    -41326.031      218.54532      20.184026      18.819992      382.16014      145168.57      20.022256      81688.16     
    797800   306.04222      0.3989        -0.00086477325  0.0026956413   0.27756732    -41326.299      223.54826      20.221649      18.802109      382.1738       145306.16      19.842146      80956.23     
    797900   307.04531      0.39895       -0.0046240193  -0.0075826469   0.30954215    -41328.09       224.28097      20.238036      18.805639      382.18746      145456.42      19.976409      81506.936    
    798000   297.4183       0.399         -0.0014209006   0.0044114224   0.2692668     -41328.555      217.24892      20.260098      18.803372      382.20112      145602.63      19.853828      81009.683    
    798100   297.49486      0.39905        0.0024480593  -0.0035947932   0.25084249    -41330.49       217.30484      20.272795      18.799744      382.21478      145670.99      20.034832      81751.156    
    798200   296.04256      0.3991        -0.002132845    0.0077388587   0.24231234    -41328.153      216.24401      20.281427      18.793512      382.22844      145689.9       19.928303      81319.376    
    798300   301.12475      0.39915        0.0082996237  -0.011378888    0.17683812    -41328.505      219.9563       20.303453      18.799485      382.2421       145899.7       19.998904      81610.387    
    798400   308.30468      0.3992        -0.014008997    0.0090052404   0.1580506     -41330.918      225.20087      20.28792       18.792798      382.25576      145741.43      20.034287      81757.699    
    798500   300.84111      0.39925        0.0106704     -0.0085790604   0.18532912    -41327.038      219.74911      20.298855      18.769827      382.26942      145646.94      19.82411       80902.879    
    798600   298.90357      0.3993        -0.0028259884   0.011269549    0.25041447    -41332.123      218.33384      20.306096      18.788664      382.28308      145850.32      20.042163      81795.685    
    798700   301.05858      0.39935        0.0012894743  -0.007241084    0.18729875    -41335.259      219.90796      20.323649      18.766231      382.29674      145807.32      19.849296      81011.455    
    798800   297.57007      0.3994        -0.0049787348   0.0049296319   0.22499119    -41330.452      217.35978      20.311422      18.75695       382.3104       145652.75      19.919531      81301.012    
    798900   300.49306      0.39945        0.0077384185  -0.0045854927   0.18145851    -41327.686      219.49488      20.298753      18.753578      382.32406      145540.92      20.061892      81884.98     
    799000   302.59242      0.3995        -0.0039791026   0.0033993986   0.20909457    -41328.779      221.02835      20.293777      18.74525       382.33772      145445.83      19.814789      80879.29     
    799100   303.47494      0.39955       -0.0049508916  -0.0059431822   0.10944977    -41331.318      221.67299      20.301881      18.730354      382.35138      145393.48      20.031463      81766.622    
    799200   296.18923      0.3996         0.0065446549  -0.00097956287  0.099598979   -41328.058      216.35115      20.282969      18.718343      382.36504      145170.08      20.104816      82068.975    
    799300   303.39662      0.39965        0.00021344394  0.0090588521   0.051208685   -41333.394      221.61578      20.294693      18.738662      382.3787       145416.86      19.814411      80886.415    
    799400   301.53985      0.3997        -0.0037066809  -0.0019579393   0.087676574   -41331.66       220.2595       20.313433      18.733398      382.39236      145515.45      20.116618      82123.018    
    799500   296.34475      0.39975       -0.0010142646  -0.0023026232   0.09460197    -41327.789      216.46475      20.323782      18.715297      382.40602      145454.1       19.896537      81227.476    
    799600   299.49247      0.3998         0.00078407444 -0.0026032547   0.083102202   -41328.763      218.764        20.324731      18.697692      382.41968      145329.26      19.960703      81492.344    
    799700   301.37677      0.39985        0.0066220508   0.0094232168  -0.038833046   -41330.837      220.14038      20.366907      18.686927      382.43334      145552.18      20.148008      82259.981    
    799800   295.27258      0.3999        -0.0031640397  -0.0087530099  -0.071653168   -41331.286      215.68158      20.39678       18.679029      382.447        145709.27      19.918293      81325.008    
    799900   292.01254      0.39995       -0.0043328999   0.0030451948  -0.032970503   -41332.271      213.30029      20.411252      18.663074      382.46066      145693.31      19.968585      81533.258    
    800000   297.02754      0.4            0.0028515633  -0.0049230631  -0.043321244   -41331.518      216.96349      20.409481      18.657358      382.47433      145641.25      19.884832      81194.188    
    800100   298.52832      0.40005        0.0076289876   0.014050072   -0.058341704   -41329.338      218.05973      20.3987        18.680235      382.48799      145748.01      20.062388      81922.116    
    800200   296.5244       0.4001        -0.003068021   -0.0084633078  -0.10702543    -41326.741      216.59598      20.415166      18.689922      382.50165      145946.51      19.899444      81259.657    
    800300   303.50466      0.40015       -0.0095435033  -0.0030755223  -0.2150251     -41330.621      221.6947       20.403043      18.693227      382.51531      145890.84      19.912717      81316.762    
    800400   300.4438       0.4002         0.004648219    0.0010636201  -0.31639644    -41329.362      219.4589       20.391694      18.683214      382.52897      145736.8       20.03555       81821.293    
    800500   302.18692      0.40025        0.0076926279   0.0041083128  -0.29281211    -41334.82       220.73216      20.370346      18.709577      382.54263      145794.85      19.877545      81178.928    
    800600   296.06699      0.4003        -0.0028110786   0.0019465183  -0.32413345    -41333.217      216.26186      20.36002       18.751687      382.55629      146054.14      19.978353      81593.539    
    800700   297.16875      0.40035       -0.0073407422  -0.0085937952  -0.2118605     -41330.719      217.06664      20.337394      18.752353      382.56995      145902.23      20.049455      81886.847    
    800800   303.17113      0.4004         0.0041129223  -0.0018637408  -0.17755158    -41330.384      221.45107      20.295115      18.76868       382.58361      145730.88      19.8594        81113.515    
    800900   300.36883      0.40045        0.0024461168   0.012357685   -0.11034749    -41328.601      219.40413      20.278389      18.778128      382.59727      145689.28      19.98566       81632.124    
    801000   299.92701      0.4005         0.0040777156  -0.0071100272  -0.13677158    -41330.581      219.08141      20.282794      18.79974       382.61093      145893.85      19.845401      81062.127    
    801100   294.37319      0.40055       -0.013049254    0.00077835984 -0.24503128    -41330.187      215.02463      20.263898      18.800538      382.62459      145769.32      20.010796      81740.627    
    801200   295.14437      0.4006         0.0082075305  -0.0057587269  -0.23867115    -41332.133      215.58793      20.251316      18.7948        382.63825      145639.55      19.866679      81154.832    
    801300   299.95309      0.40065       -0.0010213795   0.0096813988  -0.18836561    -41329.596      219.10046      20.221115      18.82364       382.65191      145650.7       19.983362      81634.393    
    801400   304.95283      0.4007         0.0015450956  -0.0054000288  -0.22734442    -41330.228      222.75251      20.247161      18.817403      382.66557      145795.2       19.835189      81031.981    
    801500   296.68607      0.40075       -0.0042549767  -0.0037101217  -0.174123      -41326.554      216.71406      20.213913      18.832326      382.67923      145676.42      20.071173      81998.969    
    801600   299.45713      0.4008        -0.0014851509   0.0093788378  -0.21128174    -41331.949      218.73819      20.233908      18.788564      382.69289      145486.85      20.014915      81772.05     
    801700   296.98217      0.40085        0.0069007053  -0.0051702286  -0.21834259    -41332.347      216.93035      20.24693       18.777519      382.70655      145500.1       19.943962      81485.076    
    801800   298.65988      0.4009        -0.0012822207   0.0056109929  -0.12666111    -41331.579      218.15583      20.269372      18.760614      382.72021      145535.43      20.138375      82282.325    
    801900   300.271        0.40095       -0.0095591999  -0.010455934   -0.12367357    -41327.694      219.33268      20.281551      18.746222      382.73387      145516.35      19.800136      80903.22     
    802000   303.49985      0.401          0.0052773885   0.00038656543 -0.13082607    -41327.901      221.69119      20.231545      18.742661      382.74753      145135.18      19.800976      80909.54     
    802100   302.97064      0.40105        0.0076905742   0.0050743017  -0.14472057    -41329.92       221.30462      20.231033      18.783062      382.76119      145449.54      19.827775      81021.935    
    802200   298.77108      0.4011        -0.0025862234   0.00015997075 -0.054804225   -41332.291      218.23706      20.197523      18.802438      382.77485      145363.6       19.938217      81476.141    
    802300   294.53032      0.40115       -0.0073007391   0.00086287131  0.021075565   -41329.897      215.1394       20.182926      18.837586      382.78851      145535.28      20.197511      82538.674    
    802400   299.32411      0.4012         0.0041386167  -0.0089968863  -0.01199319    -41330.732      218.64102      20.170442      18.814932      382.80217      145275.53      19.959942      81570.743    
    802500   299.92346      0.40125        0.0047220258   0.013132646   -0.011058473   -41329.23       219.07882      20.165303      18.851647      382.81583      145527.12      19.86224       81174.358    
    802600   300.43471      0.4013        -0.0038451581  -0.0042081888   0.073155486   -41329.073      219.45226      20.187722      18.853968      382.82949      145712.05      20.132226      82280.689    
    802700   299.13755      0.40135       -0.0019842607  -0.0024153176   0.1942148     -41330.187      218.50475      20.193313      18.86095       382.84315      145811.58      19.875797      81235.559    
    802800   298.24542      0.4014         0.0023302001  -0.003999233    0.1778076     -41334.226      217.85309      20.211774      18.828362      382.85681      145697.93      19.938413      81494.388    
    802900   291.76931      0.40145        0.0022442858   0.013737767    0.30410672    -41328.732      213.12262      20.225291      18.849612      382.87047      145965.12      19.880881      81262.139    
    803000   300.29151      0.4015        -0.0031684006  -0.0058626819   0.35772139    -41329.777      219.34766      20.2871        18.790326      382.88413      145955.9       20.062094      82005.761    
    803100   303.59206      0.40155        0.0025184108  -0.0078866704   0.35442811    -41330.495      221.75854      20.313588      18.774888      382.89779      146031.6       19.89779       81337.055    
    803200   303.86463      0.4016        -0.0062114658   0.0078009073   0.30178708    -41330.981      221.95764      20.352096      18.742278      382.91145      146059.52      20.068414      82037.452    
    803300   297.14138      0.40165        0.013462088   -0.002978347    0.28237522    -41329.864      217.04665      20.404701      18.712894      382.92511      146212.68      20.054093      81981.833    
    803400   297.08321      0.4017        -0.010786914    0.0054001307   0.14575915    -41334.647      217.00416      20.423389      18.705003      382.93877      146290.1       19.878033      81264.99     
    803500   294.70619      0.40175       -0.00095472113 -0.0052798047   0.14301902    -41331.501      215.26786      20.436293      18.642059      382.95243      145895.14      20.128954      82293.736    
    803600   300.61497      0.4018         0.0051939491   0.00049135417  0.092297195   -41332.154      219.58393      20.420355      18.646706      382.9661       145822.9       19.865717      81220.434    
    803700   305.80298      0.40185       -0.0020083905   0.0047472572   0.082627968   -41334.13       223.37351      20.437823      18.634166      382.97976      145854.69      19.854218      81176.317    
    803800   301.90728      0.4019         0.0018495579  -0.0099310292   0.13859238    -41330.041      220.52789      20.438635      18.650699      382.99342      145995.11      20.120884      82269.549    
    803900   302.1553       0.40195       -0.0085523662   0.0047769733   0.13249694    -41329.448      220.70906      20.382455      18.665023      383.00708      145710.83      20.194003      82571.458    
    804000   305.92383      0.402          0.0073621489   0.0056695853   0.11709212    -41332.666      223.46178      20.369857      18.638673      383.02074      145420.37      19.832497      81096.187    
    804100   298.18983      0.40205        0.0018788629  -0.0056161943   0.17784064    -41331.555      217.81249      20.316333      18.682341      383.0344       145383.25      20.038883      81943.03     
    804200   293.81192      0.4021         0.0014366008  -3.4167453e-05  0.29375502    -41330.173      214.61464      20.283135      18.686342      383.04806      145181.96      19.822708      81061.939    
    804300   302.87873      0.40215       -0.0034530312   0.0034446184   0.28815909    -41333.197      221.23749      20.258364      18.722077      383.06172      145287.13      20.110036      82239.855    
    804400   302.84754      0.4022         0.001911552   -0.0047082407   0.25855673    -41328.965      221.21471      20.23497       18.755775      383.07538      145385.74      19.845906      81162.592    
    804500   301.26426      0.40225       -0.0020595536   0.010076898    0.20876196    -41327.801      220.0582       20.212222      18.80525       383.08904      145610.56      20.015456      81858.91     
    804600   299.83244      0.4023         0.001918904   -0.0070138128   0.15759434    -41328.64       219.01233      20.208779      18.814222      383.1027       145660.42      19.852772      81196.462    
    804700   299.08141      0.40235       -0.0091521738   0.00046439568  0.11307224    -41329.744      218.46374      20.173689      18.843608      383.11636      145639.8       19.90207       81400.991    
    804800   295.40601      0.4024         0.0076266756   0.0044844661   0.093111154   -41328.34       215.77905      20.203395      18.813719      383.13002      145628.1       20.046205      81993.437    
    804900   298.61608      0.40245        0.0025290739  -0.00068119595  0.061362617   -41331.956      218.12384      20.225213      18.851666      383.14368      146084.62      19.816159      81055.388    
    805000   298.05811      0.4025        -0.0072703351  -0.00093603577 -0.072190018   -41333.77       217.71627      20.25901       18.862515      383.15734      146418.17      20.031159      81937.738    
    805100   296.60196      0.40255        0.0044634243  -0.0054334348  -0.013213857   -41331.79       216.65263      20.268805      18.862074      383.171        146490.75      19.847839      81190.761    
    805200   300.10016      0.4026         0.00063043577  0.007950693   -0.0607567     -41328.389      219.20789      20.277607      18.868718      383.18466      146611.22      20.082446      82153.385    
    805300   298.04384      0.40265        0.0038898125   0.00019931903 -0.13902036    -41326.191      217.70585      20.324965      18.838261      383.19832      146721.65      19.896864      81397.107    
    805400   298.49374      0.4027        -0.0051257013  -0.0061709519  -0.17067905    -41328.802      218.03447      20.311378      18.845248      383.21198      146683.19      20.16633       82502.42     
    805500   300.9197       0.40275       -0.0041689165   0.0044719724  -0.22141501    -41333.796      219.80652      20.307101      18.825229      383.22564      146501.73      20.126316      82341.655    
    805600   295.58698      0.4028         0.011752437   -0.0063030609  -0.2459025     -41333.481      215.91124      20.315315      18.828529      383.2393       146591.91      19.938293      81575.316    
    805700   299.19198      0.40285       -0.0083773993   0.011135469   -0.31097267    -41334.599      218.54451      20.290267      18.870489      383.25296      146742.68      20.174648      82545.278    
    805800   300.04494      0.4029         0.0023764846  -0.011893298   -0.32175904    -41329.265      219.16755      20.271007      18.864454      383.26662      146561.73      19.892813      81395.04     
    805900   302.23986      0.40295       -0.0048770722   0.0085027898  -0.17496617    -41329.026      220.77083      20.191455      18.884688      383.28028      146148.35      20.062573      82092.572    
    806000   298.33632      0.403          0.0065215914  -0.0017526221  -0.099285636   -41328.505      217.91949      20.183556      18.847364      383.29394      145807.63      19.874301      81325.094    
    806100   298.77531      0.40305        0.0033131222  -0.001246625   -0.12953314    -41333.073      218.24015      20.177549      18.840748      383.3076       145718.27      20.037955      81997.684    
    806200   296.91354      0.4031        -0.011214953    0.0023123298  -0.056867079   -41333.165      216.88022      20.214786      18.805185      383.32126      145716.81      19.990925      81808.145    
    806300   295.86016      0.40315        0.0027948762  -0.0055276657  -0.071549704   -41324.83       216.11078      20.208987      18.775988      383.33492      145454.02      19.858567      81269.4      
    806400   306.089        0.4032         0.0073864067   0.0055306324  -0.042684026   -41329.954      223.58243      20.23405       18.718493      383.34858      145193.63      20.009103      81888.37     
    806500   302.36741      0.40325        0.004018301   -7.8250038e-05 -0.19324943    -41330.356      220.864        20.267644      18.698924      383.36224      145287.83      19.858655      81275.551    
    806600   300.68009      0.4033        -0.010809638   -0.0023303488  -0.21936529    -41333.809      219.6315       20.292377      18.656513      383.3759       145140.36      19.92748       81560.136    
    806700   299.58519      0.40335       -9.6345061e-05  0.00045165241 -0.29120637    -41333.886      218.83172      20.315009      18.625159      383.38956      145063.21      19.982478      81788.149    
    806800   303.68615      0.4034         0.00043591534  0.0020323611  -0.2932433     -41333.791      221.82727      20.351442      18.601436      