LAMMPS (4 May 2022)
  using 1 OpenMP thread(s) per MPI task
#uniaxial tensile test of CNT_15_12_1.835

##---------------INITIALIZATION-------------------------------

units          metal
dimension 	    3
boundary       p p p
atom_style 	atomic
newton 		on


##---------------ATOM DEFINITION------------------------------

read_data 	CNT_15_12_1.835.dat
Reading data file ...
  orthogonal box = (-50 -50 -0.181564) to (50 50 298.842)
  4 by 4 by 9 MPI processor grid
  reading atoms ...
  6588 atoms
  read_data CPU = 0.079 seconds



##---------------FORCE FIELDS---------------------------------
#Set the formula(s) LAMMPS uses to compute pairwise interactions. In LAMMPS, pair potentials are defined between pairs #of atoms that are within a cutoff distance and the set of active interactions typically changes over time

pair_style 	airebo 3.0

#Specify the pairwise force field coefficients for one or more pairs of atom types. The number and meaning of the coefficients depends on the pair style.

pair_coeff     * * /ascldap/users/bcma/CH.airebo C
Reading airebo potential file /ascldap/users/bcma/CH.airebo with DATE: 2011-10-25


##---------------SETTINGS-------------------------------------

timestep 	0.0005
variable   ts equal 0.0005


##---------------COMPUTES-----stresses in 3 directions and min/max on x and z atom coordinates --------------------------

compute    1 all stress/atom NULL
compute    2 all reduce sum c_1[1] c_1[2] c_1[3]
compute    3 all property/atom x y # true atoms position
compute    4 all reduce min c_3[1] c_3[2]
compute    5 all reduce max c_3[1] c_3[2]


variable   Lx equal lx
variable   Ly equal ly
variable   Lz equal lz
variable   Vol equal vol
variable   thickn equal 3.4
#making the damp parameter timestep dependent
fix		1 all npt temp 300 300 0.05 iso 0 0 0.05 #$(100.0*dt)x 0 0 0.5 y 0 0 0.5 z 0 0 0.5
thermo 	2000
##---------------RELAXATION--------------------------------------

run            50000
Neighbor list info ...
  update every 1 steps, delay 10 steps, check yes
  max neighbors/atom: 2000, page size: 100000
  master list distance cutoff = 12.2
  ghost atom cutoff = 12.2
  binsize = 6.1, bins = 17 17 50
  1 neighbor lists, perpetual/occasional/extra = 1 0 0
  (1) pair airebo, perpetual
      attributes: full, newton on, ghost
      pair build: full/bin/ghost
      stencil: full/ghost/bin/3d
      bin: standard
Per MPI rank memory allocation (min/avg/max) = 3.755 | 3.798 | 3.925 Mbytes
   Step          Temp          E_pair         E_mol          TotEng         Press          Volume    
         0   0             -48740.03       0             -48740.03      -2178.6292      2990235.6    
      2000   5.6165473     -48826.932      0             -48822.15      -36.602707      2867221      
      4000   125.64269     -48552.89       0             -48445.913      42.433079      3096715.4    
      6000   245.37432     -48586.9        0             -48377.979     -19.828068      2763872.1    
      8000   294.69882     -48616.282      0             -48365.365     -0.16026962     2925956.1    
     10000   342.46874     -48562.941      0             -48271.351      6.1613022      2847698.5    
     12000   281.72585     -48571.614      0             -48331.742     -16.870249      2949092.2    
     14000   313.25798     -48559.639      0             -48292.92      -11.92656       2882431.7    
     16000   313.12118     -48573.175      0             -48306.572     -6.2838922      2871101      
     18000   293.59496     -48595.601      0             -48345.624     -24.537489      2880568.5    
     20000   296.55465     -48580.391      0             -48327.894     -32.438338      2836571.4    
     22000   291.68656     -48592.762      0             -48344.409     -30.084551      2867314.6    
     24000   305.53478     -48584.091      0             -48323.948     -2.5899972      2857097.6    
     26000   300.26249     -48579.376      0             -48323.722      28.04142       2871813.1    
     28000   300.58477     -48578.191      0             -48322.262      20.324041      2883066.3    
     30000   297.45315     -48565.042      0             -48311.78      -0.58720603     2880981.9    
     32000   303.97356     -48581.102      0             -48322.288     -20.340143      2888566.6    
     34000   295.16568     -48575.972      0             -48324.657     -3.7769905      2858853.4    
     36000   302.25686     -48587.653      0             -48330.3        36.933386      2856300.3    
     38000   299.46542     -48580.986      0             -48326.01       1.4051927      2852953.1    
     40000   292.2726      -48581.454      0             -48332.603     -87.181272      2878485.5    
     42000   301.02931     -48575.277      0             -48318.97      -20.420089      2864893.6    
     44000   301.01913     -48579.684      0             -48323.385      8.6751789      2888006.8    
     46000   305.94874     -48570.096      0             -48309.6       -19.528185      2869723      
     48000   296.2374      -48582.851      0             -48330.623      8.6685596      2872017.5    
     50000   301.39797     -48581.585      0             -48324.963      45.281961      2843821.4    
Loop time of 151.1 on 144 procs for 50000 steps with 6588 atoms

Performance: 14.295 ns/day, 1.679 hours/ns, 330.906 timesteps/s
99.8% CPU use with 144 MPI tasks x 1 OpenMP threads

MPI task timing breakdown:
Section |  min time  |  avg time  |  max time  |%varavg| %total
---------------------------------------------------------------
Pair    | 0.035227   | 33.333     | 135.9      | 998.9 | 22.06
Neigh   | 0.00075646 | 0.39982    | 1.6769     | 109.3 |  0.26
Comm    | 0.078786   | 2.5184     | 13.673     | 266.4 |  1.67
Output  | 0.0024606  | 0.0025189  | 0.0028547  |   0.1 |  0.00
Modify  | 4.7094     | 113.84     | 149.98     | 585.4 | 75.34
Other   |            | 1.003      |            |       |  0.66

Nlocal:          45.75 ave         185 max           0 min
Histogram: 108 0 0 0 0 0 0 0 0 36
Nghost:        273.556 ave        1099 max           0 min
Histogram: 108 0 0 0 0 0 0 0 0 36
Neighs:              0 ave           0 max           0 min
Histogram: 144 0 0 0 0 0 0 0 0 0
FullNghs:      8949.85 ave       36245 max           0 min
Histogram: 108 0 0 0 0 0 0 0 0 36

Total # of neighbors = 1288778
Ave neighs/atom = 195.62508
Neighbor list builds = 414
Dangerous builds = 2


##---------------DEFORMATION--------------------------------------
unfix              1
reset_timestep     0
fix		1 all npt temp 300 300 0.05 x 0 0 0.05 y 0 0 0.05 #$(100.0*dt)
fix        2 all ave/time 1 100 100 c_2[1] c_2[2] c_2[3]
fix        3 all ave/time 1 100 100 v_Lx v_Ly v_Lz v_Vol
fix        4 all  ave/time 1 100 100 c_4[1] c_4[2]
fix        5 all ave/time 1 100 100 c_5[1] c_5[2]
variable   srate equal 1.0e9
variable   srate1 equal "v_srate / 1.0e12"
fix		6 all deform 1 z erate ${srate1} units box remap x
fix		6 all deform 1 z erate 0.001 units box remap x
run            100
Per MPI rank memory allocation (min/avg/max) = 3.755 | 3.798 | 3.926 Mbytes
   Step          Temp          E_pair         E_mol          TotEng         Press          Volume    
         0   301.39797     -48581.585      0             -48324.963      45.281961      2843821.4    
       100   298.24416     -48578.88       0             -48324.944      211.04022      2834152      
Loop time of 0.38794 on 144 procs for 100 steps with 6588 atoms

Performance: 11.136 ns/day, 2.155 hours/ns, 257.772 timesteps/s
99.8% CPU use with 144 MPI tasks x 1 OpenMP threads

MPI task timing breakdown:
Section |  min time  |  avg time  |  max time  |%varavg| %total
---------------------------------------------------------------
Pair    | 7.7615e-05 | 0.080117   | 0.32816    |  49.0 | 20.65
Neigh   | 0          | 0          | 0          |   0.0 |  0.00
Comm    | 0.0001239  | 0.0051352  | 0.027471   |  12.3 |  1.32
Output  | 7.8348e-05 | 8.2833e-05 | 0.00014627 |   0.0 |  0.02
Modify  | 0.04371    | 0.30052    | 0.38563    |  26.8 | 77.47
Other   |            | 0.002081   |            |       |  0.54

Nlocal:          45.75 ave         185 max           0 min
Histogram: 108 0 0 0 0 0 0 0 0 36
Nghost:        274.056 ave        1100 max           0 min
Histogram: 108 0 0 0 0 0 0 0 0 36
Neighs:              0 ave           0 max           0 min
Histogram: 144 0 0 0 0 0 0 0 0 0
FullNghs:      8960.24 ave       36315 max           0 min
Histogram: 108 0 0 0 0 0 0 0 0 36

Total # of neighbors = 1290274
Ave neighs/atom = 195.85216
Neighbor list builds = 0
Dangerous builds = 0
##---------------THERMO-OUTPUTS--------------------------------------
variable cntdiameter equal ((f_5[1]-f_4[1])+(f_5[2]-f_4[2]))/2
#actual volume of cnt
variable   CorVol equal 3.14*v_cntdiameter*v_thickn*f_3[3]
#convertion factor of stress from barr to GPA
variable   ConvoFac equal 1/1.0e4
variable   sigmaxx equal f_2[1]*v_ConvoFac/v_CorVol
variable   sigmayy equal f_2[2]*v_ConvoFac/v_CorVol
variable   sigmazz equal f_2[3]*v_ConvoFac/v_CorVol
variable   StrainPerTs equal v_srate1*v_ts
variable   strain equal v_StrainPerTs*step
thermo 	100
thermo_style custom step temp v_strain v_sigmaxx v_sigmayy v_sigmazz pe ke lx ly lz vol v_cntdiameter v_CorVol
thermo_modify lost warn


##---------------DEFORMATION--------------------------------------
dump           1 all atom 5000 /ascldap/users/bcma/CNT_15_12_1.835/CNT_15_12_1.835.lammpstrj
run            1000000
Per MPI rank memory allocation (min/avg/max) = 4.755 | 4.798 | 4.926 Mbytes
   Step          Temp         v_strain      v_sigmaxx      v_sigmayy      v_sigmazz        PotEng         KinEng           Lx             Ly             Lz           Volume     v_cntdiameter     v_CorVol   
       100   298.24416      5e-05         -0.0099676883  -0.015985677   -2.7521237     -48578.88       253.93598      98.120987      98.220422      294.0759       2834152        18.896863      59326.228    
       200   303.18455      0.0001         0.0015873318   0.017539202   -2.6958896     -48578.831      258.14241      98.280547      98.104475      294.0906       2835551.4      18.931039      59436.494    
       300   304.40436      0.00015        0.0049862572  -0.0033894645  -2.6861031     -48575.28       259.181        98.337099      98.183846      294.10531      2839620.4      18.956205      59518.482    
       400   302.5491       0.0002         0.00048957063 -0.0086545855  -2.6185269     -48576.298      257.60137      98.487229      98.083136      294.12001      2841180.6      18.990538      59629.262    
       500   299.10216      0.00025        0.001441913   -0.0066699658  -2.53553       -48578.275      254.66651      98.447729      98.09401       294.13471      2840497.9      19.010079      59693.603    
       600   298.04284      0.0003         0.0053260413   0.012855738   -2.4780822     -48577.968      253.76457      98.592173      98.026461      294.14942      2842848.7      18.966612      59560.091    
       700   300.67255      0.00035       -0.0066637571  -0.00017170784 -2.4597216     -48579.693      256.00361      98.772102      98.02436       294.16412      2848118.2      18.943268      59489.757    
       800   300.50944      0.0004        -0.0090001882   0.0037784192  -2.4209049     -48578.255      255.86473      98.911867      97.881288      294.17882      2848127.9      18.937052      59473.209    
       900   302.85879      0.00045       -0.0047732062   0.0082703576  -2.3056908     -48578.266      257.86505      99.030399      97.783807      294.19353      2848843.5      18.877993      59290.696    
      1000   301.75444      0.0005         0.013460194   -0.0060028411  -2.2987122     -48580.199      256.92476      99.264083      97.65348       294.20823      2851902.5      18.92018       59426.163    
      1100   294.85596      0.00055        0.0070016533  -0.013048856   -2.282573      -48579.507      251.05115      99.268606      97.718282      294.22294      2854067.7      18.977249      59608.39     
      1200   295.36104      0.0006        -0.012847013    0.0067756549  -2.2437329     -48579.624      251.48119      99.383428      97.582317      294.23764      2853535.8      18.955619      59543.423    
      1300   302.50939      0.00065       -0.0014091456   0.0069887721  -2.1517233     -48580.505      257.56756      99.393578      97.603481      294.25234      2854588.8      18.812742      59097.572    
      1400   302.54989      0.0007         0.0098686817   0.0021130588  -2.134649      -48578.886      257.60205      99.638937      97.51711       294.26705      2859246.1      18.855137      59233.71     
      1500   300.08275      0.00075       -0.0070044514  -0.015541817   -2.0373274     -48578.996      255.50143      99.555587      97.635768      294.28175      2860473.4      18.922697      59448.921    
      1600   296.9653       0.0008         0.0048403405   0.0030510881  -2.0273129     -48579.336      252.84712      99.590713      97.594259      294.29645      2860409        18.916946      59433.824    
      1700   299.37399      0.00085       -0.0013529606   0.009285841   -1.9630499     -48582.197      254.89797      99.571024      97.711741      294.31116      2863429.2      18.956384      59560.704    
      1800   300.17654      0.0009         0.0014526648  -0.0052169515  -1.9081442     -48580.525      255.58128      99.645872      97.657415      294.32586      2864131.5      19.04086       59829.118    
      1900   300.06051      0.00095        0.00050434085 -0.0015276247  -1.8142102     -48575.038      255.4825       99.538081      97.78708       294.34057      2864975.2      19.027033      59788.658    
      2000   301.63741      0.001          0.0049962486   0.0011291535  -1.7723092     -48575.47       256.82513      99.501223      97.851889      294.35527      2865955.5      19.101448      60025.489    
      2100   301.16476      0.00105       -0.0052447291   0.0029343571  -1.7531651     -48577.991      256.42269      99.475374      98.025352      294.36997      2870433.6      19.102532      60031.894    
      2200   296.67523      0.0011        -0.0025632901  -0.014378889   -1.7167325     -48580.309      252.60014      99.404527      98.11997       294.38468      2871301.3      19.025424      59792.561    
      2300   298.54678      0.00115        0.0047754035   0.01134129    -1.6655071     -48582.879      254.19365      99.21835       98.255128      294.39938      2870014.7      19.01035       59748.172    
      2400   294.35706      0.0012         0.00051544748  0.004850632   -1.6320174     -48578.408      250.62637      99.251463      98.392933      294.41408      2875142.7      18.931408      59503.034    
      2500   304.6289       0.00125       -0.0056515301  -0.00187794    -1.5354921     -48584.12       259.37219      99.192824      98.507776      294.42879      2876941.6      18.906474      59427.632    
      2600   301.44539      0.0013         0.0091549132  -0.0091772792  -1.5638225     -48579.711      256.66163      99.061574      98.614398      294.44349      2876388.3      18.860046      59284.658    
      2700   301.82617      0.00135       -0.010860042    0.012612655   -1.4987549     -48579.663      256.98584      99.037589      98.679563      294.4582       2877735.8      18.833309      59203.569    
      2800   298.54854      0.0014         0.00016856426  0.0032878487  -1.4293549     -48581.819      254.19514      99.091671      98.675115      294.4729       2879321.3      18.800367      59102.964    
      2900   295.36398      0.00145        0.0040177075  -0.013318638   -1.4438456     -48583.846      251.48369      99.098762      98.730597      294.4876       2881290.3      18.830417      59200.389    
      3000   292.86401      0.0015         0.010332571   -0.0026574184  -1.3549065     -48577.815      249.35513      98.951353      98.876809      294.50231      2881408.8      18.813275      59149.452    
      3100   302.44462      0.00155       -0.012284682    0.010449723   -1.3167306     -48580.627      257.51241      99.006432      98.954473      294.51701      2885421.3      18.84362       59247.816    
      3200   302.16851      0.0016        -0.0030121528  -0.00037452884 -1.2236265     -48579.611      257.27732      99.073692      98.913028      294.53172      2886316.2      18.971079      59651.549    
      3300   302.52742      0.00165        0.0075203342  -0.0014309104  -1.2051382     -48582.779      257.58291      99.110176      98.899858      294.54642      2887138.8      19.050761      59905.084    
      3400   297.4118       0.0017         0.0094223171  -0.0062093313  -1.1388221     -48583.331      253.22728      99.094463      98.957973      294.56112      2888521.5      19.056826      59927.148    
      3500   296.62845      0.00175       -0.013847062    0.0026810735  -1.1010058     -48581.382      252.56031      99.129353      98.964951      294.57583      2889886.5      19.0058        59769.673    
      3600   298.46391      0.0018        -0.0040279874   0.0038196345  -1.0500602     -48579.386      254.12309      99.191182      98.83437       294.59053      2888017.7      19.049383      59909.722    
      3700   297.70767      0.00185        0.0022377788   0.012083529   -1.0347264     -48577.414      253.4792       99.434344      98.74003       294.60523      2892478.4      19.032905      59860.889    
      3800   296.62798      0.0019         0.0025769377  -0.012187827   -0.95713538    -48576.447      252.55991      99.599999      98.581631      294.61994      2892793.7      19.121473      60142.446    
      3900   301.40725      0.00195       -0.0056497702   0.00094910836 -0.91034114    -48580.98       256.62916      99.749781      98.527966      294.63464      2895711.4      19.030587      59859.573    
      4000   295.855        0.002          0.010461343   -0.0024917755  -0.89705591    -48578.734      251.90177      99.920861      98.358686      294.64935      2895838.7      18.942174      59584.448    
      4100   297.50113      0.00205        0.009768253    0.0055985198  -0.82082414    -48583.432      253.30335      100.08732      98.381734      294.66405      2901487.3      18.895215      59439.701    
      4200   299.99104      0.0021        -0.017314504   -0.01270192    -0.8152306     -48585.219      255.42334      100.21818      98.204803      294.67875      2900200.8      18.97655       59698.538    
      4300   304.68479      0.00215       -0.0009744437   0.014194182   -0.7313383     -48583.131      259.41977      100.26541      98.100937      294.69346      2898643.3      18.976297      59700.723    
      4400   299.8391       0.0022         0.0082126429  -0.0016174513  -0.72643532    -48576.639      255.29398      100.43522      98.023486      294.70816      2901405        18.962506      59660.313    
      4500   298.88528      0.00225        0.0015886479  -0.0081868338  -0.65835534    -48575.885      254.48186      100.45004      98.0517        294.72286      2902813        18.960481      59656.916    
      4600   298.29765      0.0023        -0.0076792117  -0.0037006078  -0.63516116    -48577.698      253.98153      100.38874      98.04712       294.73757      2901050.9      19.017062      59837.928    
      4700   298.01319      0.00235        0.001819539    0.018325677   -0.57771107    -48584.73       253.73933      100.41341      98.068537      294.75227      2902542.4      18.947194      59621.059    
      4800   294.65554      0.0024         0.0041490319  -0.0068343335  -0.52110861    -48582.168      250.8805       100.56856      98.082244      294.76698      2907578.6      18.83672       59276.389    
      4900   300.5115       0.00245        0.00036626418 -0.012336828   -0.488456      -48583.923      255.86648      100.48887      98.172379      294.78168      2908089.5      18.882413      59423.143    
      5000   299.11082      0.0025         0.0034573953   0.0058105057  -0.46666728    -48580.394      254.67389      100.34206      98.276994      294.79638      2907080.4      18.986074      59752.343    
      5100   299.94985      0.00255       -0.0049676422   0.022205178   -0.40743235    -48579.693      255.38827      100.26497      98.494504      294.81109      2911421.2      18.932077      59585.379    
      5200   301.78346      0.0026        -0.0068683889  -0.019310908   -0.3465304     -48580.506      256.94947      100.19204      98.519062      294.82579      2910174        18.954631      59659.337    
      5300   304.81429      0.00265        0.0095823851  -0.0017746795  -0.3141673     -48579.802      259.53004      100.05829      98.649844      294.84049      2910292.2      18.955185      59664.057    
      5400   306.15254      0.0027         0.0071543992  -0.0036630938  -0.27466134    -48578.054      260.66947      99.964279      98.730691      294.8552       2910085.9      19.018955      59867.767    
      5500   302.65546      0.00275       -0.0020321251  -0.002492749   -0.19363936    -48577.688      257.69193      99.816579      99.068049      294.8699       2915860.5      18.947912      59647.114    
      5600   301.45429      0.0028        -0.0085101699   0.0038542059  -0.16448448    -48582.459      256.6692       99.705601      99.151451      294.88461      2915216        18.932422      59601.323    
      5700   302.31595      0.00285        0.0031231531   0.0051322651  -0.07756182    -48585.07       257.40286      99.57607       99.283379      294.89931      2915447.9      18.905535      59519.65     
      5800   297.01757      0.0029        -0.0084593547   0.0043964469  -0.058818371   -48580.835      252.89162      99.601392      99.362951      294.91401      2918672        18.853087      59357.488    
      5900   298.38628      0.00295        0.0048275183  -0.0036688189  -0.0037509052  -48579.446      254.05699      99.602507      99.300561      294.92872      2917017.5      18.933647      59614.097    
      6000   304.97372      0.003          0.0048995343  -0.0071935992   0.044714765   -48578.293      259.66578      99.585447      99.362157      294.94342      2918472.5      18.98404       59775.744    
      6100   302.92354      0.00305        0.00060308051  0.004252462    0.13742881    -48576.855      257.92018      99.532598      99.426889      294.95813      2918969.5      18.925798      59595.327    
      6200   299.45635      0.0031        -0.0055049753   0.0017368145   0.16289367    -48578.493      254.96808      99.572359      99.402817      294.97283      2919574.1      18.882569      59462.167    
      6300   295.82826      0.00315        0.0039617416  -0.00085610478  0.22741205    -48577.858      251.879        99.622509      99.280507      294.98753      2917595.8      18.904134      59533.044    
      6400   298.31937      0.0032         0.0064807606   0.0089320342   0.25917433    -48579.05       254.00002      99.786288      99.319262      295.00224      2923678.8      18.932673      59625.892    
      6500   301.26601      0.00325       -0.011814937   -0.014740128    0.28529259    -48580.167      256.5089       99.932378      99.234547      295.01694      2925607.6      18.876438      59451.749    
      6600   301.32164      0.0033        -0.0020370112   0.0057969851   0.36275517    -48580.755      256.55626      99.986388      99.097625      295.03164      2923295.5      18.840083      59340.205    
      6700   298.71094      0.00335        0.0082055924   0.0048806384   0.38995355    -48584.21       254.33342      100.18278      98.969444      295.04635      2925394.5      18.864798      59421.011    
      6800   296.91759      0.0034        -0.0051414945   0.00040765872  0.45014109    -48585.37       252.8065       100.34436      98.854756      295.06105      2926863.3      18.923045      59607.452    
      6900   297.3873       0.00345       -0.0043494171  -0.0054669722   0.48210251    -48580.948      253.20642      100.53932      98.656706      295.07576      2926820.4      18.966773      59748.17     
      7000   296.06618      0.0035         0.011720946    0.0014742351   0.49839147    -48575.243      252.08157      100.65579      98.485615      295.09046      2925275.3      18.940094      59667.101    
      7100   302.47777      0.00355        0.0054183804  -0.0059495415   0.5750751     -48579.698      257.54064      100.69076      98.587304      295.10516      2929459.1      19.092973      60151.712    
      7200   299.98588      0.0036        -0.0071554654   0.001438036    0.62897785    -48580.222      255.41895      100.70022      98.536857      295.11987      2928380.9      19.052862      60028.335    
      7300   297.24162      0.00365        0.0047941094  -0.0024972059   0.65521353    -48582.455      253.08239      100.75202      98.518957      295.13457      2929500.9      19.100797      60182.359    
      7400   295.95588      0.0037         0.00012429107  0.0059352317   0.7271181     -48580.134      251.98766      100.71591      98.64354       295.14927      2932300.3      19.046645      60014.729    
      7500   307.19254      0.00375       -0.015139555    0.0039476462   0.77658874    -48582.355      261.55497      100.77121      98.601459      295.16398      2932804.8      18.892041      59530.547    
      7600   303.60666      0.0038         0.0073073316  -0.0063245476   0.81784631    -48580.186      258.50182      100.69143      98.630178      295.17868      2931482.6      18.852705      59409.555    
      7700   297.98019      0.00385        0.011671831   -0.00071849385  0.88020184    -48578.183      253.71123      100.68059      98.695696      295.19339      2933260.3      18.877806      59491.617    
      7800   299.86921      0.0039        -0.012613481    0.0053990738   0.91343046    -48582.663      255.31961      100.53938      98.900129      295.20809      2935359.6      18.897418      59556.39     
      7900   298.01074      0.00395       -0.0066927424  -0.0013946953   0.9956868     -48581.431      253.73724      100.47567      98.809658      295.22279      2930962.2      18.811298      59287.93     
      8000   300.37182      0.004          0.016044816    0.0013572285   0.97079689    -48576.199      255.74755      100.46116      98.973055      295.2375       2935531.1      18.897333      59562.054    
      8100   302.22451      0.00405       -0.0017754104  -0.0065245473   1.0585811     -48577.73       257.325        100.34617      99.139776      295.2522       2937256.4      18.894997      59557.657    
      8200   301.71457      0.0041        -0.01290904     0.0050585827   1.0746298     -48581.556      256.89082      100.17254      99.286377      295.2669       2936656.2      18.92438       59653.246    
      8300   302.43224      0.00415        0.0063573369   0.013999806    1.1357728     -48583.397      257.50187      100.09137      99.300016      295.28161      2934826.1      18.951784      59742.604    
      8400   296.67215      0.0042         0.0062143798  -0.017013759    1.1661819     -48577.781      252.59752      100.08814      99.45395       295.29631      2939427.1      18.925862      59663.859    
      8500   304.71006      0.00425        0.0027872585  -0.0086717609   1.268855      -48578.724      259.44129      99.910485      99.56874       295.31102      2937742.5      18.957913      59767.875    
      8600   304.19746      0.0043        -0.0013800473   0.0096137506   1.3145993     -48575.277      259.00485      99.730115      99.715679      295.32572      2936912.7      18.970527      59810.622    
      8700   305.24384      0.00435       -0.0071038616   0.0079868512   1.3633378     -48578.666      259.89577      99.772595      99.776912      295.34042      2940114.4      18.982123      59850.161    
      8800   300.06603      0.0044        -0.013209902    0.0024349071   1.3752399     -48577.133      255.48719      99.770727      99.80412       295.35513      2941007.4      18.975852      59833.367    
      8900   298.7204       0.00445        0.0098373072  -0.0064928561   1.4318465     -48578.88       254.34147      99.817388      99.695313      295.36983      2939321.4      18.953016      59764.338    
      9000   300.10027      0.0045         0.01242466    -0.001899172    1.4848541     -48581.757      255.51635      99.869937      99.691819      295.38454      2940912.2      19.023995      59991.142    
      9100   295.27801      0.00455       -0.0080437451  -0.001979098    1.5371426     -48580.426      251.41049      99.938015      99.685411      295.39924      2942874.2      18.94384       59741.351    
      9200   295.27829      0.0046         0.0037015048  -0.0052658854   1.6115959     -48583.566      251.41073      99.921819      99.649977      295.41394      2941497.8      18.895995      59593.434    
      9300   295.10891      0.00465        0.0022504935   0.015467144    1.6394465     -48579.19       251.26652      99.987194      99.590406      295.42865      2941809.1      18.92793       59697.119    
      9400   305.1208       0.0047         0.00074874082 -0.0055998806   1.663776      -48582.199      259.79101      100.21724      99.513372      295.44335      2946443.4      18.918566      59670.556    
      9500   297.98865      0.00475       -0.010616065   -0.0098829437   1.7229215     -48576.125      253.71844      100.30511      99.3439        295.45805      2944151.2      18.943284      59751.491    
      9600   300.76484      0.0048         0.010631028    0.0058553428   1.7266536     -48580.8        256.08218      100.39425      99.212495      295.47276      2943016.2      18.920545      59682.737    
      9700   294.29929      0.00485       -0.0014981413   0.0092863213   1.8427691     -48579.116      250.57718      100.55032      99.15433       295.48746      2946009.9      18.834142      59413.147    
      9800   299.29662      0.0049        -0.0057176764  -0.01390706     1.8057077     -48581.845      254.83209      100.72896      98.914364      295.50217      2944248        18.862776      59506.434    
      9900   302.55955      0.00495        0.0061944111   0.0051468856   1.8931546     -48576.895      257.61027      100.68647      98.883941      295.51687      2942247.1      18.941255      59756.984    
     10000   303.88648      0.005          0.006040321    0.011074379    1.9433356     -48578.559      258.74007      100.88824      98.844961      295.53157      2947127.7      18.861655      59508.821    
     10100   297.35221      0.00505       -0.012560394   -0.013576382    2.0061467     -48576.65       253.17655      100.94776      98.810121      295.54628      2947973.7      18.875977      59556.969    
     10200   302.25513      0.0051         0.0011668809   0.0058497659   2.019264      -48584.014      257.35108      101.02788      98.645193      295.56098      2945535.4      18.945894      59780.543    
     10300   298.93062      0.00515        0.0076644698  -0.00064805758  2.0764528     -48581.185      254.52046      101.0974       98.607028      295.57568      2946568.6      18.975814      59877.928    
     10400   305.34336      0.0052        -0.01340699     0.0085084431   2.0964664     -48578.818      259.9805       101.24304      98.574514      295.59039      2949987.3      18.960548      59832.734    
     10500   304.16136      0.00525       -0.00014333393 -0.01623782     2.1552657     -48576.616      258.9741       101.27612      98.469114      295.60509      2947942.3      18.910051      59676.353    
     10600   299.68555      0.0053         0.0099658283   0.012309633    2.1810009     -48577.068      255.16324      101.11752      98.519873      295.6198       2944989.6      18.975676      59886.43     
     10700   299.71255      0.00535        0.005692037   -0.0046100098   2.2818162     -48579.778      255.18623      101.16482      98.628004      295.6345       2949747.6      19.00415       59979.276    
     10800   298.73111      0.0054        -0.011847307   -0.0053790241   2.233727      -48579.402      254.35059      100.99669      98.716878      295.6492       2947645.7      19.036111      60083.137    
     10900   301.55798      0.00545        0.0090428007   0.00018125339  2.3583798     -48579.149      256.75749      100.8744       98.750278      295.66391      2945219        18.920326      59720.657    
     11000   301.71842      0.0055         0.0069032841   0.0084947632   2.3919578     -48571.287      256.8941       100.66524      99.154895      295.67861      2951301.7      18.945244      59802.283    
     11100   307.18032      0.00555       -0.017234502   -0.0030094629   2.4178718     -48576.491      261.54456      100.60765      99.230733      295.69331      2952016.1      18.859942      59535.981    
     11200   300.7159       0.0056         0.012292757   -0.011521478    2.4628839     -48576.184      256.04051      100.34003      99.355435      295.70802      2948010.1      18.818014      59406.58     
     11300   300.04809      0.00565        0.00098183123  0.012871534    2.5336565     -48579.188      255.47191      100.15137      99.543522      295.72272      2948184.1      18.904541      59682.706    
     11400   299.54044      0.0057        -0.0030459553  -0.0026090453   2.5673661     -48579.986      255.03969      100.02175      99.785702      295.73743      2951678.6      18.857697      59537.776    
     11500   302.50581      0.00575       -0.01221748    -0.0017620808   2.6516952     -48580.888      257.56451      99.866658      99.770047      295.75213      2946785.9      18.84802       59510.183    
     11600   306.40112      0.0058         0.020894121    0.0049592362   2.6335181     -48578.292      260.88112      99.760001      99.859673      295.76683      2946429.5      18.926794      59761.871    
     11700   298.464        0.00585       -0.0071903592  -0.00021254085  2.6729349     -48571.344      254.12316      99.804429      100.00116      295.78154      2952064.9      19.0891        60277.354    
     11800   301.31352      0.0059        -0.0083420518  -0.0045496825   2.7272148     -48578.608      256.54935      99.737933      100.01748      295.79624      2950726.1      19.02271       60070.703    
     11900   298.57206      0.00595       -0.001332767    0.0098127615   2.8013808     -48580.986      254.21517      99.747584      99.939356      295.81095      2948853.3      18.97954       59937.358    
     12000   300.91433      0.006          0.0082585635   0.0037163439   2.8573145     -48581.648      256.20947      99.921703      99.847792      295.82565      2951441.1      18.943601      59826.836    
     12100   297.88231      0.00605       -0.0061405106  -0.013538439    2.8580546     -48576.52       253.62789      99.970498      99.806443      295.84035      2951806.2      18.923421      59766.075    
     12200   304.24514      0.0061         0.0022847993  -4.4625964e-05  2.9330899     -48578.244      259.04544      100.13039      99.584899      295.85506      2950111.2      18.959376      59882.608    
     12300   304.90835      0.00615        0.001972458    0.0061469004   2.9701907     -48576.357      259.61012      100.20669      99.523637      295.86976      2950689.7      18.94042       59825.709    
     12400   304.31017      0.0062         0.0031542648  -0.0022816582   3.0193095     -48575.585      259.10081      100.53873      99.296553      295.88446      2953858.7      19.013669      60060.061    
     12500   294.94463      0.00625       -0.0098171131  -0.011974011    3.0816369     -48574.409      251.12665      100.59277      99.132902      295.89917      2950722.3      18.959908      59893.216    
     12600   297.90945      0.0063         0.0094415717   0.016083471    3.1095622     -48579.581      253.65101      100.743        98.916515      295.91387      2948825.2      19.015992      60073.368    
     12700   297.29825      0.00635       -0.004518083   -0.00059266777  3.1131249     -48579.222      253.1306       100.9742       98.782298      295.92858      2951728.9      18.943117      59846.123    
     12800   303.91806      0.0064        -0.0014168951  -0.0060816213   3.2317881     -48579.238      258.76696      101.20709      98.575748      295.94328      2952497.4      18.888773      59677.401    
     12900   304.08609      0.00645        0.0093454838  -0.0053610982   3.2400638     -48577.008      258.91002      101.22829      98.381345      295.95798      2947438.1      18.898891      59712.335    
     13000   303.72112      0.0065        -0.0045178688   0.007597124    3.3116603     -48578.454      258.59927      101.30454      98.430237      295.97269      2951270.8      18.923843      59794.142    
     13100   296.84081      0.00655       -0.0048360837   0.0029848358   3.3399694     -48574.619      252.74112      101.39626      98.250179      295.98739      2948685.8      18.890797      59692.693    
     13200   296.27286      0.0066         0.0036853924  -0.0028286845   3.4121469     -48574.189      252.25755      101.45415      98.220176      296.00209      2949614.8      18.900325      59725.765    
     13300   299.69501      0.00665        0.010613315   -0.011682409    3.4163701     -48576.147      255.17129      101.36549      98.216952      296.0168       2947086.8      18.944252      59867.55     
     13400   300.98474      0.0067        -0.0067946332   0.015526709    3.4863571     -48577.011      256.26942      101.34012      98.395878      296.0315       2951863.5      18.928191      59819.767    
     13500   302.79967      0.00675       -0.0088176032  -0.0054094459   3.5344624     -48580.381      257.81472      101.24911      98.429932      296.04621      2950379.7      18.833153      59522.368    
     13600   297.46794      0.0068         0.0034949457   0.0029985204   3.5892336     -48577.516      253.27509      101.03461      98.651854      296.06091      2950913.4      18.875614      59659.529    
     13700   299.04411      0.00685        0.0038638622   0.0048817577   3.5812256     -48578.122      254.61709      100.81872      98.800663      296.07561      2949196.2      18.903706      59751.287    
     13800   303.57347      0.0069        -0.0078989064  -0.001638868    3.6722686     -48574.869      258.47355      100.6908       99.034005      296.09032      2952557.3      18.951975      59906.832    
     13900   305.75296      0.00695       -0.0060801164  -0.0059302084   3.681047      -48574.275      260.32926      100.36669      99.13424       296.10502      2946178.4      18.952744      59912.238    
     14000   302.31333      0.007          0.017052321    0.014225347    3.7421507     -48576.354      257.40063      100.18946      99.361769      296.11972      2947872.6      18.990535      60034.682    
     14100   296.52234      0.00705       -0.0023797722  -0.014053204    3.7694447     -48575.121      252.46997      99.975824      99.608705      296.13443      2949043.6      18.974995      59988.535    
     14200   295.30757      0.0071        -0.0060524975  -0.0034004675   3.850045      -48573.904      251.43567      99.726514      99.849819      296.14913      2948956.6      18.950945      59915.475    
     14300   301.55541      0.00715        0.0040810339   0.0081883731   3.8575141     -48576.786      256.75531      99.608151      99.916108      296.16384      2947558.4      18.958771      59943.194    
     14400   302.31053      0.0072         0.0029146193   0.0053018261   3.9394472     -48574.592      257.39824      99.492797      100.16968      296.17854      2951763.2      18.898126      59754.415    
     14500   300.45908      0.00725       -0.01943337    -0.0094244485   3.968141      -48572.279      255.82185      99.378842      100.06511      296.19324      2945450.8      18.875599      59686.15     
     14600   301.64737      0.0073         0.014581571    0.0025113778   4.0315356     -48576.111      256.8336       99.323991      100.06998      296.20795      2944114.4      18.891598      59739.705    
     14700   298.04357      0.00735        0.0038494802   0.0047131085   4.1139857     -48576.956      253.7652       99.403011      100.0417       296.22265      2945770.1      18.84419       59592.748    
     14800   298.19777      0.0074        -0.0073817853  -0.010069186    4.1054124     -48576.052      253.89649      99.494881      99.977565      296.23736      2946748.8      18.906945      59794.172    
     14900   306.44503      0.00745        0.00074951093  0.0073351947   4.1459845     -48576.246      260.91851      99.587375      99.717847      296.25206      2941972.1      18.982628      60036.505    
     15000   303.46676      0.0075         0.010624593    0.0063357708   4.1453378     -48572.609      258.3827       99.824233      99.677781      296.26676      2947930.7      19.020368      60158.85     
     15100   299.37811      0.00755       -0.013257545   -0.0046761333   4.2380226     -48572.956      254.90147      100.03438      99.46794       296.28147      2948063.9      19.007882      60122.341    
     15200   300.5384       0.0076         0.0045922732  -0.006931156    4.2396982     -48576.235      255.88939      100.26068      99.15548       296.29617      2945597.5      19.018421      60158.664    
     15300   299.2866       0.00765       -0.0012613288   0.016618787    4.284734      -48577.055      254.82356      100.42482      98.968743      296.31087      2945009.5      19.005935      60122.151    
     15400   297.74901      0.0077        -0.0023846485  -0.013544886    4.3398648     -48576.356      253.5144       100.84333      98.586332      296.32558      2946002        18.949114      59945.383    
     15500   300.72208      0.00775       -0.0034615009  -0.0074482175   4.4273053     -48574.822      256.04578      100.92116      98.298306      296.34028      2939807.9      18.95513       59967.389    
     15600   302.0454       0.0078         0.016230249    0.012525361    4.44052       -48570.415      257.1725       101.23192      98.062516      296.35499      2941932.9      18.865154      59685.699    
     15700   303.38122      0.00785        0.0018944133  -0.0085548645   4.5080225     -48572.527      258.30987      101.43217      97.965322      296.36969      2944976.8      18.856306      59660.665    
     15800   302.01169      0.0079        -0.013412864   -0.0047213942   4.5059672     -48577.05       257.1438       101.51725      97.826279      296.38439      2943409.6      18.903549      59813.108    
     15900   298.19136      0.00795        0.0048215465   0.011276036    4.5818017     -48576.079      253.89103      101.5306       97.729019      296.3991       2941015.9      18.827795      59576.368    
     16000   301.07894      0.008         -0.0047952271   0.0049475647   4.6459026     -48579.14       256.34963      101.59877      97.696833      296.4138       2942167.4      18.843614      59629.383    
     16100   300.75636      0.00805        0.009899274   -0.012857293    4.6976441     -48576.776      256.07496      101.54158      97.630961      296.4285       2938674.3      18.915806      59860.798    
     16200   301.8812       0.0081         0.001311568   -0.010731102    4.7001779     -48570.4        257.0327       101.4009       97.76768       296.44321      2938858.1      18.936466      59929.15     
     16300   305.26387      0.00815       -0.0046423473   0.018571834    4.7892844     -48573.439      259.91282      101.1684       97.916795      296.45791      2936737.3      18.89134       59789.304    
     16400   299.18858      0.0082        -0.0054399699  -0.00031281368  4.7911436     -48572.678      254.7401       101.13976      98.070155      296.47262      2940650.2      18.881255      59760.349    
     16500   297.94406      0.00825        0.0065798694  -0.0043793871   4.8864314     -48574.876      253.68047      100.97084      98.191741      296.48732      2939524.2      18.868548      59723.095    
     16600   300.24         0.0083         0.0055888672  -0.0051970854   4.8753699     -48577.703      255.63532      100.69533      98.406501      296.50202      2938060.9      18.839105      59632.857    
     16700   302.1205       0.00835       -0.004044684    0.014498626    4.9412541     -48577.264      257.23645      100.42062      98.691605      296.51673      2938679.9      18.845175      59655.031    
     16800   303.29003      0.0084        -0.011160704   -0.0064273708   4.9873563     -48571.68       258.23223      100.29045      98.862023      296.53143      2940084.5      18.848875      59669.7      
     16900   305.93338      0.00845        0.0045278439  -3.6418868e-06  5.0109978     -48571.181      260.48287      99.961974      99.039463      296.54613      2935860.2      18.943403      59971.921    
     17000   298.31554      0.0085         0.0041477983   0.0012611664   5.0108333     -48568.648      253.99676      99.790579      99.224533      296.56084      2936448.6      18.988326      60117.121    
     17100   299.53504      0.00855        0.0047321378  -0.0040012374   5.0845314     -48572.85       255.03509      99.531637      99.415434      296.57554      2934609.3      19.023924      60232.809    
     17200   299.95153      0.0086        -0.0066937973  -0.0087466157   5.097554      -48574.125      255.3897       99.378828      99.501506      296.59025      2932786.1      19.058648      60345.743    
     17300   300.75777      0.00865        0.0073920551   0.010853742    5.1491958     -48572.903      256.07617      99.267608      99.568794      296.60495      2931630.3      19.026279      60246.241    
     17400   300.92583      0.0087        -0.0056080017   0.0051673945   5.2226697     -48569.706      256.21925      99.221943      99.688631      296.61965      2933953.9      18.986563      60123.461    
     17500   302.303        0.00875       -0.0086700578  -0.00019518252  5.2583374     -48571.104      257.39184      99.236752      99.606546      296.63436      2932120.9      18.964203      60055.631    
     17600   299.185        0.0088         0.0056772678   0.0018206812   5.3019568     -48574.443      254.73705      99.283246      99.487981      296.64906      2930148        19.018317      60229.985    
     17700   297.19264      0.00885        0.0090552362  -0.0024510771   5.3266671     -48574.172      253.04068      99.455366      99.305511      296.66377      2929989.6      19.034257      60283.454    
     17800   298.96312      0.0089        -0.0039785477  -0.015004684    5.4109042     -48572.381      254.54813      99.563933      99.219564      296.67847      2930794.6      19.023812      60253.359    
     17900   302.07935      0.00895       -0.0075719663   0.011343622    5.4271945     -48572.032      257.20141      99.611892      98.988921      296.69317      2925535.2      18.970174      60086.453    
     18000   300.07404      0.009          0.0030214266   0.013466287    5.5435491     -48570.63       255.49401      99.892296      98.817112      296.70788      2928823.7      18.872884      59781.257    
     18100   301.16676      0.00905       -0.0070705453  -0.0098748291   5.5385248     -48572.204      256.4244       100.11627      98.57157       296.72258      2928241.7      18.926572      59954.287    
     18200   299.33749      0.0091         0.0087557084  -0.0078622102   5.5916922     -48571.371      254.86689      100.29995      98.339924      296.73728      2926865.2      18.937246      59991.072    
     18300   300.01088      0.00915        0.015836218    0.0036690891   5.6070109     -48574.842      255.44024      100.33731      98.266359      296.75199      2925910        18.904595      59890.608    
     18400   294.62097      0.0092        -0.016854839    0.0030640885   5.7223921     -48574.874      250.85107      100.48584      98.206518      296.76669      2928601.8      18.920977      59945.474    
     18500   289.78443      0.00925       -0.0043036548   0.0010888256   5.6960625     -48574.974      246.73306      100.53693      97.921261      296.7814       2921724.6      18.954667      60055.187    
     18600   297.09601      0.0093         0.006737055    0.0073951361   5.782012      -48574.972      252.95841      100.71048      97.809647      296.7961       2923577.1      18.899811      59884.352    
     18700   298.05838      0.00935        0.0014261097  -0.015754465    5.7342778     -48570.343      253.77781      100.8382       97.682841      296.8108       2923634.5      19.054763      60378.309    
     18800   304.1728       0.0094        -0.0021351622  -0.002694871    5.7921656     -48572.315      258.98385      100.68992      97.717845      296.82551      2920526.2      19.076599      60450.496    
     18900   304.47583      0.00945       -0.00053095533  0.015752631    5.849937      -48572.568      259.24185      100.70227      97.599829      296.84021      2917501.3      18.964089      60096.948    
     19000   297.29714      0.0095        -0.0068861708   0.0012624968   5.926911      -48570.87       253.12966      100.76984      97.677853      296.85491      2921937.4      18.943506      60034.695    
     19100   296.59118      0.00955       -0.0011259218  -0.0041633686   5.9522728     -48573.336      252.52858      100.68972      97.572391      296.86962      2916606.6      18.896804      59889.656    
     19200   296.25252      0.0096         0.0081665227  -0.0011466974   6.0132756     -48571.26       252.24024      100.62175      97.613498      296.88432      2916010.1      18.926917      59988.065    
     19300   299.89461      0.00965        0.0081418244  -0.0042410783   6.0552793     -48568.033      255.34124      100.56964      97.69958       296.89903      2917214.6      18.883874      59854.605    
     19400   303.71121      0.0097        -0.0029626846  -0.0052258634   6.0777152     -48568.282      258.59083      100.32254      97.85418       296.91373      2914796.2      18.978002      60155.933    
     19500   302.46213      0.00975       -0.005024065    0.0100276      6.1555008     -48569.759      257.52732      100.1518       97.990831      296.92843      2914043.1      18.920678      59977.2      
     19600   299.2316       0.0098        -0.0082189166   0.0063535104   6.1625553     -48571.808      254.77673      100.00128      98.094013      296.94314      2912871.6      18.895486      59900.31     
     19700   300.08696      0.00985        0.0030106565  -0.0025541236   6.2223624     -48574.328      255.50501      99.996415      98.099055      296.95784      2913023.9      18.940887      60047.207    
     19800   298.5491       0.0099         0.013898804   -0.016666984    6.2989895     -48571.342      254.19562      99.741942      98.284847      296.97255      2911257.9      18.86791       59818.815    
     19900   299.94528      0.00995       -0.0044334791   0.0065300645   6.3543698     -48566.495      255.38438      99.494151      98.494867      296.98725      2910375        18.852753      59773.72     
     20000   305.87488      0.01          -0.0045748329   0.0060515887   6.3737665     -48570.561      260.43306      99.331333      98.605949      297.00195      2909033.2      18.884795      59878.275    
     20100   302.05692      0.01005       -0.0047565357   0.0032497011   6.4157044     -48569.78       257.18231      99.216175      98.663576      297.01666      2907502.8      18.918032      59986.63     
     20200   299.74269      0.0101         0.0038929493  -0.0016775093   6.4455831     -48569.154      255.21189      99.113785      98.691787      297.03136      2905476.6      18.947851      60084.158    
     20300   298.42852      0.01015        0.0078972289  -0.01367894     6.494272      -48568.633      254.09295      99.071436      98.707635      297.04606      2904845.3      18.913933      59979.571    
     20400   298.58348      0.0102         3.5520613e-05  0.0042694155   6.5337129     -48569.653      254.22489      98.890926      98.821463      297.06077      2903040        18.964054      60141.493    
     20500   298.92375      0.01025       -0.010512641    0.013379358    6.5205788     -48574.337      254.51462      98.935864      98.757331      297.07547      2902618        19.012705      60298.765    
     20600   294.45779      0.0103         0.0011630196  -0.0045527905   6.5953219     -48571.84       250.71213      98.984819      98.661057      297.09018      2901366.9      19.034412      60370.597    
     20700   296.84282      0.01035       -0.0052803603   0.0047731304   6.6678775     -48567.394      252.74283      99.04681       98.518328      297.10488      2899127.5      18.94388       60086.435    
     20800   303.27147      0.0104         0.0060322696   3.1209497e-05  6.6553454     -48570.894      258.21642      99.190856      98.373168      297.11958      2899209.3      19.010042      60299.273    
     20900   297.47028      0.01045       -0.0046700736  -0.00099711642  6.7179411     -48566.384      253.27707      99.262497      98.287247      297.13429      2898912.7      19.019853      60333.376    
     21000   296.41733      0.0105         0.0053527144  -0.0087608601   6.742374      -48567.016      252.38056      99.500713      97.939106      297.14899      2895720.1      19.050113      60432.356    
     21100   296.64081      0.01055        0.010789192    0.0037566236   6.787831      -48570.363      252.57083      99.520261      97.903935      297.16369      2895392.2      18.999565      60274.986    
     21200   294.49136      0.0106        -0.007156275   -0.0038883565   6.8272542     -48570.95       250.74071      99.76358       97.750078      297.1784       2898053.4      18.980266      60216.741    
     21300   298.39278      0.01065       -0.0082037482  -9.8814425e-05  6.9221685     -48571.278      254.06253      99.711385      97.573914      297.1931       2891460.1      18.937453      60083.884    
     21400   304.40039      0.0107         0.0065152157   0.0091889377   6.9579472     -48570.311      259.17763      99.935076      97.351264      297.20781      2891477.1      18.923414      60042.313    
     21500   301.9763       0.01075        0.0033422484  -0.0064789688   7.034187      -48567.544      257.11366      100.04862      97.250608      297.22251      2891912.4      18.894319      59952.964    
     21600   300.30627      0.0108        -0.017977943    0.00035322976  7.0285628     -48568.064      255.69174      99.991749      97.131421      297.23721      2886869.1      18.92093       60040.373    
     21700   296.78725      0.01085        0.017002927    0.015322929    7.1235684     -48569.212      252.69552      100.21602      96.892532      297.25192      2886370.9      18.867493      59873.768    
     21800   293.68628      0.0109        -0.0016878729  -0.012518582    7.1636682     -48571.259      250.05524      100.25174      96.877624      297.26662      2887098.1      18.865408      59870.111    
     21900   299.01942      0.01095       -0.011828666   -0.0011881537   7.2278122     -48572.856      254.59608      100.25324      96.787773      297.28132      2884606.3      18.807425      59689.051    
     22000   296.77902      0.011          0.012627824    0.0040709501   7.2537082     -48563.91       252.68851      100.16901      96.75402       297.29603      2881320.2      18.843535      59806.612    
     22100   303.90705      0.01105       -0.00089925201  0.00459889     7.2363507     -48568.863      258.75758      100.11593      96.923684      297.31073      2884985.8      18.963813      60191.334    
     22200   296.21568      0.0111        -0.0092032162  -0.023209343    7.2721363     -48564.095      252.20886      99.883738      96.960628      297.32544      2879534.4      18.974936      60229.618    
     22300   300.08988      0.01115        0.012800582    0.014682347    7.2975712     -48569.597      255.5075       99.554012      97.196361      297.34014      2877148.7      18.998617      60307.766    
     22400   297.06841      0.0112        -0.0042668771   0.0064960857   7.3671189     -48570.414      252.93491      99.417698      97.409052      297.35484      2879638.9      18.993489      60294.472    
     22500   297.38925      0.01125       -0.00090406169 -0.010162157    7.3638707     -48571.075      253.20808      99.205902      97.489718      297.36955      2876026.1      19.039366      60443.096    
     22600   299.02806      0.0113        -0.00093470877  0.01035649     7.4429873     -48565.128      254.60343      98.955552      97.677324      297.38425      2874431        19.000778      60323.576    
     22700   303.99376      0.01135        0.002802012    0.0023957999   7.4826748     -48566.674      258.83141      98.920724      97.734301      297.39896      2875237.6      18.949923      60165.095    
     22800   305.77788      0.0114        -0.0021376265  -0.02022766     7.5818709     -48569.079      260.35047      98.627831      97.956428      297.41366      2873381.8      18.910842      60043.982    
     22900   299.39423      0.01145       -0.00058914426  0.011761248    7.5785125     -48568.779      254.9152       98.407234      98.009652      297.42836      2868654.6      18.934662      60122.587    
     23000   297.73271      0.0115         0.008285414    0.0025646305   7.6805236     -48569.751      253.50052      98.353849      98.112169      297.44307      2870239.2      18.893442      59994.667    
     23100   297.80806      0.01155       -0.016281763   -0.0078758634   7.7108803     -48567.397      253.56468      98.240937      98.154253      297.45777      2868315.6      18.864064      59904.341    
     23200   299.23268      0.0116         0.011131922   -0.0033705722   7.7302811     -48565.785      254.77765      98.190764      97.990278      297.47247      2862202.9      18.879376      59955.931    
     23300   299.9717       0.01165        0.0061664255   0.01527962     7.783664      -48564.824      255.40688      98.137271      98.115934      297.48718      2864453.5      18.927341      60111.225    
     23400   304.26449      0.0117        -0.011765745   -0.0066041664   7.820185      -48568.568      259.06191      98.199786      98.003671      297.50188      2863140.1      18.866124      59919.768    
     23500   296.82655      0.01175        0.00088013137 -0.002563172    7.9285917     -48566.843      252.72898      98.168645      97.866513      297.51659      2858367.7      18.864847      59918.674    
     23600   294.88199      0.0118         0.01473637     0.014302424    7.9344026     -48569.171      251.07332      98.300844      97.808812      297.53129      2860670.7      18.878207      59964.073    
     23700   294.00208      0.01185       -0.017782799   -0.012305568    7.9611323     -48564.746      250.32413      98.443443      97.644066      297.54599      2860136.5      18.825905      59800.897    
     23800   296.97521      0.0119         0.0046174792  -5.6817891e-05  7.9899617     -48562.552      252.85555      98.516007      97.425221      297.5607       2855970.8      18.886149      59995.228    
     23900   299.71751      0.01195        0.0056788839   0.0093136209   8.0286743     -48564.354      255.19045      98.671022      97.203448      297.5754       2854094.3      18.897331      60033.714    
     24000   299.57765      0.012         -0.004722777   -0.005385684    8.0560386     -48564.996      255.07137      98.943476      96.976198      297.5901       2855425.3      19.000031      60362.96     
     24100   297.75014      0.01205       -0.01399617    -0.0046847823   8.0684992     -48565.636      253.51536      99.040343      96.624863      297.60481      2848006.5      18.939752      60174.425    
     24200   295.56021      0.0121         0.01988612     0.0073284613   8.1405168     -48565.289      251.65078      99.264949      96.468201      297.61951      2849978        19.048219      60522.031    
     24300   299.17233      0.01215       -0.0069709046  -0.002550881    8.1680929     -48564.793      254.72626      99.369437      96.295805      297.63422      2848020.1      19.023475      60446.399    
     24400   304.70812      0.0122         0.00044171732 -0.00068059494  8.2254056     -48564.809      259.43964      99.532384      96.096253      297.64892      2846919.4      18.97475       60294.556    
     24500   306.49573      0.01225        0.0064687694   0.0031640276   8.2575313     -48566.22       260.96168      99.577373      95.946469      297.66362      2843907.3      19.049201      60534.124    
     24600   295.34393      0.0123        -0.0041082623  -0.010178048    8.2962296     -48562.091      251.46663      99.70779       95.830801      297.67833      2844339.4      18.998291      60375.326    
     24700   296.42282      0.01235        0.0021619767  -0.0032329204   8.3696895     -48564.722      252.38523      99.517291      95.81898       297.69303      2838695.2      18.992395      60359.571    
     24800   298.09776      0.0124         0.00030171741  0.019581938    8.3824292     -48564.975      253.81134      99.44493       95.893028      297.70773      2838963.4      19.012276      60425.736    
     24900   297.37084      0.01245       -0.0080099892  -0.0046078908   8.5018395     -48561.647      253.19241      99.433058      95.85459       297.72244      2837626.8      18.947908      60224.134    
     25000   301.41185      0.0125         0.0028351819  -0.008540427    8.4622515     -48562.037      256.63307      99.288015      95.855511      297.73714      2833654.7      19.003419      60403.553    
     25100   303.75247      0.01255        0.0087384353   0.0095730059   8.5184971     -48559.989      258.62597      99.118703      95.979238      297.75185      2832613.8      19.044984      60538.66     
     25200   304.02609      0.0126        -0.0090955999  -0.0088814305   8.532443      -48555.016      258.85894      99.032044      96.123295      297.76655      2834525.1      18.991547      60371.781    
     25300   305.77106      0.01265        0.0040066017  -0.003718051    8.622081      -48559.188      260.34467      98.796204      96.131464      297.78125      2828154.7      18.987794      60362.832    
     25400   305.46134      0.0127         0.0071755118   0.0075863867   8.6261797     -48565.652      260.08096      98.600818      96.319388      297.79596      2828219        19.013243      60446.721    
     25500   301.19089      0.01275       -0.0055674693  -0.0018342069   8.7229676     -48565.756      256.44494      98.408216      96.471752      297.81066      2827299.2      18.940742      60219.197    
     25600   300.45078      0.0128         0.004191364   -0.0053216391   8.7455147     -48566.18       255.81479      98.222304      96.533998      297.82537      2823918.1      18.983724      60358.831    
     25700   299.45506      0.01285       -0.005968197    0.010912638    8.7412579     -48562.709      254.96699      97.967266      96.761201      297.84007      2823354.2      19.067304      60627.569    
     25800   302.63864      0.0129        -0.0090739593  -0.0031848778   8.7819079     -48560.4        257.6776       97.862152      96.698897      297.85477      2818648        19.025438      60497.435    
     25900   303.98892      0.01295        0.0089345599   0.0010987323   8.8449411     -48560.213      258.82729      97.664011      96.834934      297.86948      2817037.4      18.996695      60409.019    
     26000   299.68463      0.013         -0.0020399042   0.0067157203   8.9024098     -48562.16       255.16246      97.586399      96.908057      297.88418      2817063.4      18.997065      60413.178    
     26100   294.20545      0.01305        0.0064809557  -0.021960226    8.9920443     -48561.968      250.49728      97.442576      96.976911      297.89888      2815049.1      18.926051      60190.316    
     26200   295.98525      0.0131        -0.0038077644   0.010365665    9.0557755     -48560.534      252.01266      97.320362      97.009037      297.91359      2812588.6      18.792276      59767.822    
     26300   302.6215       0.01315       -0.0033896223   0.0072234298   9.1110532     -48562.094      257.66302      97.377343      96.92971       297.92829      2812072.9      18.806935      59817.398    
     26400   300.50694      0.0132        -0.0019383201  -0.0032219179   9.1220042     -48559.676      255.8626       97.384084      96.788561      297.943        2808311        18.865033      60005.144    
     26500   296.66513      0.01325        0.0081447073  -0.0023841095   9.153734      -48560.269      252.59154      97.477342      96.61164       297.9577       2806000.5      18.887361      60079.13     
     26600   293.14558      0.0133         0.0049606523  -0.00073466096  9.2286003     -48562.654      249.59487      97.558636      96.511027      297.9724       2805554.4      18.833097      59909.477    
     26700   296.39105      0.01335       -0.0083283003  -0.0023928456   9.2303107     -48562.367      252.35818      97.578212      96.368322      297.98711      2802106.4      18.853418      59977.078    
     26800   300.03106      0.0134        -0.0042759552   0.012450801    9.3161893     -48561.033      255.45742      97.737965      96.101659      298.00181      2799065.6      18.893031      60106.064    
     26900   302.36203      0.01345        0.0090217238  -0.0085209301   9.3150321     -48560.8        257.44209      97.982939      95.938932      298.01651      2801468        18.880034      60067.679    
     27000   303.71526      0.0135         0.0010009537  -0.013385692    9.3300881     -48563.026      258.59428      97.980202      95.778223      298.03122      2796835.1      18.995539      60438.144    
     27100   297.60378      0.01355       -0.0047126385   0.011695745    9.3691388     -48561.54       253.39075      98.066204      95.61465       298.04592      2794647.2      18.921783      60206.446    
     27200   292.04036      0.0136         0.0021395838   0.0087911658   9.4773308     -48561.725      248.65384      98.192661      95.526161      298.06063      2795799.1      18.892059      60114.834    
     27300   297.78142      0.01365       -0.0095239608  -0.0049527028   9.5200722     -48563.497      253.54199      98.182312      95.304067      298.07533      2789142.6      18.852108      59990.667    
     27400   300.5139       0.0137         0.012682262    0.0016219425   9.6256589     -48559.339      255.86853      98.210524      95.135202      298.09003      2785138.1      18.813794      59871.701    
     27500   302.51587      0.01375       -0.00014187958 -0.0042945337   9.6285257     -48559.088      257.57308      98.28031       95.080934      298.10474      2785664.7      18.828633      59921.877    
     27600   299.15937      0.0138        -0.0081064832  -0.008491759    9.6703536     -48555.417      254.71523      98.28138       95.035167      298.11944      2784491.4      18.870295      60057.429    
     27700   299.57993      0.01385        0.0042828223   0.010494965    9.636299      -48555.912      255.07331      98.118264      94.967868      298.13414      2778038.5      18.956838      60335.841    
     27800   296.20994      0.0139        -0.0013646443   0.0053224215   9.6669877     -48556.313      252.20398      98.285448      94.964006      298.14885      2782796.1      19.042363      60611.039    
     27900   299.05902      0.01395       -0.0066743171  -0.010037271    9.6829019     -48563.183      254.62979      98.155582      94.896913      298.16355      2777292.6      19.065005      60686.1      
     28000   295.01079      0.014          0.0092833509   0.0042624711   9.6924307     -48559.775      251.18298      97.981554      94.97464       298.17826      2774776.1      19.096497      60789.342    
     28100   300.4046       0.01405        0.0040313828   0.0024198853   9.7659994     -48558.856      255.77546      97.850758      95.079345      298.19296      2774263.8      19.09422       60785.09     
     28200   304.00987      0.0141        -0.0077991223  -0.0062116142   9.7718421     -48558.32       258.84512      97.569841      95.176112      298.20766      2769251.2      19.109902      60838.01     
     28300   300.4492       0.01415        0.0038722115   0.0059939436   9.873499      -48555.205      255.81344      97.37949       95.200985      298.22237      2764707.3      19.070389      60715.211    
     28400   300.66168      0.0142         0.0041049304   0.0042328738   9.8475425     -48556.676      255.99435      97.21136       95.439653      298.23707      2766989.4      19.103303      60823        
     28500   297.7856       0.01425       -0.015613329   -0.010787956    9.9685689     -48557.945      253.54555      97.008575      95.575458      298.25178      2765282.8      19.037821      60617.503    
     28600   296.88516      0.0143         0.0068812637   0.0069040934   10.014418     -48559.22       252.77888      96.81297       95.596571      298.26648      2760452.7      19.003234      60510.356    
     28700   300.89104      0.01435        0.0097347034  -0.0041427442   10.088528     -48560.176      256.18964      96.711394      95.786928      298.28118      2763183.6      18.947038      60334.391    
     28800   303.86453      0.0144        -0.0073856451  -0.0022919678   10.076704     -48556.536      258.72138      96.49514       95.770228      298.29589      2756660.1      18.991589      60479.24     
     28900   302.69615      0.01445        0.0069378806  -0.0030809579   10.205226     -48554.85       257.72657      96.418132      95.79163       298.31059      2755211.5      18.902618      60198.877    
     29000   296.87747      0.0145         0.0037833215   0.0077319558   10.219206     -48554.114      252.77234      96.228099      95.843267      298.32529      2751399.1      18.908434      60220.365    
     29100   296.20009      0.01455       -0.014019919   -0.0076550764   10.27494      -48556.518      252.19559      96.194307      95.801159      298.34         2749360.1      18.905638      60214.431    
     29200   298.56598      0.0146         0.0022745623   0.010571575    10.299641     -48556.568      254.20999      96.183577      95.688324      298.3547       2745950.8      18.962429      60398.286    
     29300   303.8361       0.01465        0.00045417951  0.0021063765   10.371007     -48559.311      258.69717      96.300386      95.566478      298.36941      2745920.1      18.899557      60200.996    
     29400   301.3788       0.0147         0.0023652848  -0.013957241    10.43098      -48556.202      256.60493      96.370769      95.428343      298.38411      2744090.3      18.877761      60134.531    
     29500   302.65536      0.01475        0.0057863911   0.00700362     10.490556     -48558.564      257.69184      96.365379      95.341439      298.39881      2741573.1      18.868993      60109.564    
     29600   295.97387      0.0148         0.00054319318 -0.0023636671   10.541764     -48558.455      252.00298      96.467434      95.213156      298.41352      2740918.9      18.814981      59940.455    
     29700   295.43388      0.01485       -0.0055407618  -0.0091086158   10.56427      -48558.581      251.54321      96.441892      95.070859      298.42822      2736232.7      18.873849      60130.957    
     29800   298.44597      0.0149        -0.0038552988   0.019101974    10.574041     -48555.468      254.10782      96.566502      94.846102      298.44292      2733425.7      18.910019      60249.162    
     29900   303.44471      0.01495        0.00044045687 -0.001077009    10.664162     -48556.674      258.36393      96.698574      94.629138      298.45763      2731037.3      18.876584      60145.599    
     30000   298.64621      0.015         -0.0026101035  -0.011406932    10.641253     -48551.534      254.2783       96.732846      94.467702      298.47233      2727478.9      18.941853      60356.534    
     30100   301.05832      0.01505        0.010084479    0.011592277    10.679452     -48553.434      256.33206      96.81811       94.28119       298.48704      2724627.5      18.995997      60532.044    
     30200   296.45591      0.0151        -0.0018572451  -0.0023139745   10.729718     -48552.875      252.4134       96.958195      94.210926      298.50174      2726670.5      18.945173      60373.063    
     30300   298.94497      0.01515       -0.011791871   -0.0063327357   10.839195     -48558.737      254.53268      96.995821      94.037378      298.51644      2722837.9      18.888408      60195.133    
     30400   294.33711      0.0152         0.010423131    0.0063003121   10.90051      -48555.647      250.60938      96.990091      93.840001      298.53115      2717096.2      18.851661      60080.984    
     30500   298.93882      0.01525       -0.00046080725 -0.00092253372  10.903227     -48553.308      254.52744      97.063894      93.802443      298.54585      2718209.3      18.836085      60034.299    
     30600   301.56863      0.0153        -0.00016557043 -0.0042716439   10.979042     -48551.314      256.76656      96.971762      93.70034       298.56055      2712806.9      18.83513       60034.213    
     30700   304.8576       0.01535        0.0046755378  -0.0029100359   10.989229     -48552.571      259.56691      96.846203      93.664792      298.57526      2708399.9      18.897721      60236.677    
     30800   297.04148      0.0154         0.0052301523   0.0084928287   11.050039     -48546.492      252.91198      96.761361      93.843193      298.58996      2711314.8      18.857143      60110.296    
     30900   294.40279      0.01545       -0.018200939   -0.010846365    11.063689     -48550.726      250.6653       96.509498      93.880505      298.60467      2705465.9      18.874319      60168.009    
     31000   299.28971      0.0155         0.010917248    0.011615079    11.112511     -48556.689      254.8262       96.349561      93.971539      298.61937      2703734.5      18.868514      60152.466    
     31100   297.39786      0.01555       -0.0064355406   0.0058513114   11.165587     -48552.684      253.21542      96.219552      94.104596      298.63407      2704042.6      18.861972      60134.57     
     31200   300.49398      0.0156        -0.00046841647 -0.010794332    11.191331     -48551.84       255.85156      96.015328      94.128358      298.64878      2699117.5      18.909101      60287.793    
     31300   302.85421      0.01565        0.010369319    0.0033403057   11.190077     -48551.847      257.86115      95.781009      94.22635       298.66348      2695466.3      18.981737      60522.359    
     31400   299.63812      0.0157         0.0027560058  -0.0081867589   11.219736     -48545.651      255.12285      95.656182      94.350782      298.67819      2695641        19.008938      60612.07     
     31500   302.43592      0.01575       -0.0089726717  -0.0060317085   11.210302     -48546.055      257.50501      95.368009      94.344853      298.69289      2687483.5      19.068589      60805.268    
     31600   301.65612      0.0158         0.0045515539   0.018446816    11.278511     -48548.936      256.84106      95.299176      94.369237      298.70759      2686370.1      19.042999      60726.656    
     31700   302.30683      0.01585       -0.010546469   -0.0019690299   11.279187     -48553.717      257.39509      95.259687      94.394234      298.7223       2686100.5      19.05311       60761.89     
     31800   295.76271      0.0159         0.001952156   -0.0074737963   11.352277     -48550.288      251.82319      95.201876      94.28419       298.737        2681472.8      18.995474      60581.066    
     31900   294.54457      0.01595        0.014243281    0.012412367    11.449876     -48548.548      250.78602      95.224458      94.292219      298.7517       2682469.3      18.955737      60457.311    
     32000   303.1741       0.016         -0.0051673876  -0.015412217    11.550936     -48550.249      258.13351      95.246607      94.185388      298.76641      2680185.2      18.875633      60204.792    
     32100   303.96101      0.01605       -0.0026681448   0.0013124621   11.492688     -48546.412      258.80353      95.157906      94.054812      298.78111      2674108.6      18.957425      60468.647    
     32200   300.97718      0.0161         0.00746455     0.0089450224   11.613975     -48546.329      256.26298      95.244771      93.955995      298.79582      2673869.2      18.953994      60460.678    
     32300   300.41574      0.01615       -0.0077204113  -0.0089113695   11.629136     -48549.561      255.78495      95.228011      93.807449      298.81052      2669303.3      18.885093      60243.858    
     32400   297.93028      0.0162         0.00067757333  0.0013055237   11.628178     -48548.227      253.66874      95.121226      93.728534      298.82522      2664198.1      18.944208      60435.41     
     32500   298.69148      0.01625        0.0020045081   0.015395551    11.748047     -48548.146      254.31685      95.286301      93.587546      298.83993      2664938.2      18.883625      60245.104    
     32600   303.67727      0.0163        -0.011963674   -0.0099080166   11.763672     -48550.539      258.56193      95.342813      93.417655      298.85463      2661809.2      18.876729      60226.067    
     32700   299.64957      0.01635        0.0083168625  -0.0012459943   11.840813     -48545.72       255.1326       95.407872      93.235365      298.86933      2658558.6      18.85165       60149.014    
     32800   302.45586      0.0164         0.009744062    0.001266052    11.931631     -48547.998      257.52198      95.468246      93.136302      298.88404      2657545.2      18.828125      60076.907    
     32900   301.5337       0.01645       -0.013397466   -0.0082697059   11.918263     -48551.531      256.73682      95.49377       93.002512      298.89874      2654567.7      18.796151      59977.835    
     33000   297.73144      0.0165         0.0058413701   0.0093916724   11.966641     -48550.675      253.49944      95.410456      92.808331      298.91345      2646844.2      18.912995      60353.651    
     33100   301.42932      0.01655        0.0019719924   0.0074357149   11.923589     -48551.738      256.64794      95.52142       92.731572      298.92815      2647861.1      18.993935      60614.921    
     33200   296.45436      0.0166        -0.010619146   -0.0096923016   11.944425     -48541.654      252.41209      95.594678      92.537315      298.94285      2644470.8      19.002732      60645.978    
     33300   305.2833       0.01665        0.0099241587  -0.0017671442   12.042774     -48547.209      259.92937      95.522877      92.409689      298.95756      2638969.9      18.899767      60320.337    
     33400   298.89713      0.0167         0.00012059869  0.0096621673   12.062877     -48543.805      254.49194      95.574289      92.456557      298.97226      2641859.3      18.945313      60468.675    
     33500   301.97625      0.01675       -0.011964259   -0.015696944    12.116446     -48549.724      257.11362      95.579226      92.33124       298.98696      2638544.6      18.960008      60518.554    
     33600   299.92455      0.0168         0.018450322    0.0046062139   12.18096      -48550.882      255.36673      95.375465      92.317631      299.00167      2632660.9      18.873978      60246.917    
     33700   296.04009      0.01685       -0.0056522972   0.004731013    12.253968     -48546.608      252.05936      95.24314       92.442425      299.01637      2632691.7      18.869827      60236.631    
     33800   297.08533      0.0169        -0.0021234793  -0.0093644258   12.278386     -48545.587      252.94932      95.12406       92.4234        299.03108      2628988.2      18.840982      60147.509    
     33900   296.28577      0.01695        0.004594338    0.008564737    12.332712     -48542.195      252.26854      94.752361      92.536051      299.04578      2622036.2      18.843143      60157.364    
[...]
    773500   301.26782      0.38675       -0.0038080059   0.0069037771   0.10747179    -48224.501      256.51044      22.291155      19.416332      407.79505      176498.79      21.292799      92699.064    
    773600   296.66138      0.3868         0.00010172991 -0.0053984328   0.059938874   -48221.411      252.58835      22.313942      19.438917      407.80975      176891.09      21.163885      92141.154    
    773700   295.10507      0.38685       -0.0055696678   0.00090583914 -0.0094898745  -48223.976      251.26325      22.316883      19.432272      407.82445      176860.31      21.118869      91948.486    
    773800   295.61454      0.3869        -0.0069936788  -1.1842762e-05  0.071159598   -48228.627      251.69703      22.340343      19.427684      407.83916      177010.81      21.391306      93137.992    
    773900   296.38701      0.38695        0.0040955104  -0.0083455485   0.059149199   -48226.992      252.35474      22.315023      19.441572      407.85386      176942.96      21.194036      92282.404    
    774000   299.38581      0.387          0.0055247995   0.0068097244   0.092597895   -48223.476      254.90803      22.310557      19.453789      407.86857      177025.1       21.366604      93037.148    
    774100   301.49023      0.38705        0.0021430757   0.0027089702   0.0081498509  -48224.583      256.6998       22.281223      19.493904      407.88327      177163.3       21.43618       93343.469    
    774200   303.49969      0.3871         0.0048592602  -0.0017561114   0.12618284    -48226.56       258.41073      22.262491      19.519899      407.89797      177256.78      21.278583      92660.558    
    774300   296.38604      0.38715       -0.0027636283   0.0042516827   0.057415991   -48224.125      252.35391      22.270179      19.528221      407.91268      177399.99      21.358903      93013.676    
    774400   295.11006      0.3872        -0.0035635114  -0.0032220126   0.12869738    -48226.216      251.2675       22.302899      19.494819      407.92738      177363.15      21.340294      92935.985    
    774500   295.95734      0.38725       -0.004097668   -0.0035689379  -0.0087054966  -48223.199      251.98891      22.289554      19.471681      407.94208      177053.02      21.112411      91946.882    
    774600   303.38932      0.3873         0.0030537425  -0.0015880434   0.016376657   -48223.556      258.31676      22.287314      19.453801      407.95679      176879.03      21.181957      92253.088    
    774700   304.01507      0.38735       -0.0054527659   0.0044924291  -0.070871873   -48225.097      258.84955      22.248362      19.483125      407.97149      176842.44      21.193946      92308.63     
    774800   297.8298       0.3874         0.0060007208  -0.0026741265  -0.11146609    -48224.267      253.58319      22.224804      19.466487      407.9862       176510.68      21.336544      92933.053    
    774900   297.9515       0.38745        0.0048803768   0.0072923859  -0.18538386    -48226.436      253.6868       22.238213      19.453889      408.0009       176509.24      21.517429      93724.292    
    775000   298.25263      0.3875        -0.0025342574  -0.0018194245  -0.19548415    -48225.364      253.9432       22.243705      19.442766      408.0156       176458.24      21.297384      92769.176    
    775100   304.27937      0.38755        0.00013771017 -0.0009043939  -0.21226373    -48223.239      259.07459      22.265491      19.426932      408.03031      176493.58      21.269622      92651.587    
    775200   306.70493      0.3876        -0.0034933363  -0.0031670196  -0.21273573    -48222.993      261.1398       22.267813      19.427479      408.04501      176523.31      21.412109      93275.627    
    775300   301.26795      0.38765       -0.001980602   -0.0052104636  -0.26140413    -48222.927      256.51055      22.258467      19.4357        408.05972      176530.25      21.208506      92392.022    
    775400   298.54219      0.3877        -0.0043558332   0.00795793    -0.23712922    -48224.476      254.18974      22.25433       19.448629      408.07442      176621.22      21.294085      92768.178    
    775500   298.05723      0.38775        0.0078248891  -0.0023886025  -0.20669016    -48225.806      253.77683      22.244095      19.456196      408.08912      176615.04      21.468628      93531.946    
    775600   300.69767      0.3878        -0.0012945891   0.0015613611  -0.19726645    -48227.341      256.025        22.251537      19.454376      408.10383      176663.98      21.327319      92919.658    
    775700   301.44835      0.38785        0.0037676783   0.0011219074  -0.14785868    -48224.253      256.66415      22.244151      19.466622      408.11853      176722.87      21.18541       92304.708    
    775800   308.8867       0.3879         0.0021961111  -0.00050465506 -0.075341189   -48225.693      262.99744      22.251424      19.497649      408.13323      177068.79      21.405929      93268.868    
    775900   306.22579      0.38795       -0.0016713677   0.0029999207  -0.082597886   -48224.207      260.73184      22.262184      19.519703      408.14794      177361.19      21.194477      92350.865    
    776000   297.46059      0.388         -0.0042337442  -0.0016250811  -0.13196732    -48224.117      253.26883      22.235245      19.571159      408.16264      177619.94      21.215642      92446.419    
    776100   298.9059       0.38805       -0.00030295929 -0.006948974   -0.14126264    -48226.589      254.49941      22.219923      19.579639      408.17735      177580.84      21.405324      93276.314    
    776200   302.00144      0.3881        -0.00095831191  0.0042745126  -0.10800821    -48228.737      257.13507      22.19619       19.599216      408.19205      177574.94      21.492275      93658.587    
    776300   299.35239      0.38815        0.0024414596   0.0021544121  -0.027907728   -48225.03       254.87958      22.208267      19.59596       408.20675      177648.44      21.222379      92485.77     
    776400   299.39034      0.3882         0.0078104191  -0.00097701869 -0.014172501   -48222.974      254.91189      22.231951      19.570665      408.22146      177614.74      21.320645      92917.355    
    776500   306.24681      0.38825       -0.0022358012   0.0069253483  -0.050820334   -48227.491      260.74974      22.254001      19.579681      408.23616      177879.21      21.494599      93678.835    
    776600   298.80485      0.3883        -0.0024342569  -0.0066624887  -0.1106949     -48223.665      254.41338      22.276154      19.577196      408.25086      178040.1       21.322901      92933.878    
    776700   299.2374       0.38835       -0.0021612647  -0.0012437465  -0.15089263    -48229.21       254.78167      22.27511       19.554041      408.26557      177827.59      21.301449      92843.729    
    776800   296.11072      0.3884        -0.0086287406   0.00073991264 -0.21571476    -48227.108      252.1195       22.28095       19.513668      408.28027      177513.35      21.184642      92337.942    
    776900   300.59695      0.38845        0.0034698454  -0.0096782523  -0.19082054    -48226.421      255.93923      22.283787      19.466416      408.29498      177112.43      21.335208      92997.566    
    777000   301.92441      0.3885         0.0026961717   0.0071334505  -0.234262      -48223.62       257.06948      22.253154      19.479146      408.30968      176990.99      21.461217      93550.192    
    777100   301.15715      0.38855        0.0055233392  -0.002256321   -0.2569423     -48224.38       256.41621      22.251667      19.474422      408.32438      176942.62      21.198539      92408.496    
    777200   296.44556      0.3886         0.001718069    0.0090696748  -0.18609761    -48223.731      252.40459      22.253922      19.452963      408.33909      176771.92      21.392103      93255.638    
    777300   296.67071      0.38865        0.0026457942  -0.0029358381  -0.15250459    -48226.215      252.59629      22.250232      19.455012      408.35379      176767.59      21.436977      93454.628    
    777400   302.70613      0.3887        -0.0055147913  -0.0020217148  -0.1070448     -48230.561      257.73507      22.252788      19.436102      408.36849      176622.43      21.210558      92470.879    
    777500   303.54247      0.38875       -0.0010104098  -0.001892536   -0.15034998    -48226.228      258.44716      22.217759      19.450826      408.3832       176484.34      21.170005      92297.408    
    777600   304.18845      0.3888        -0.00010776689  0.00055294556 -0.12986664    -48223.776      258.99717      22.202033      19.450095      408.3979       176359.15      21.407186      93334.832    
    777700   301.79299      0.38885       -0.00073359951  0.0029437792  -0.018129562   -48226.112      256.95759      22.202937      19.464809      408.41261      176506.1       21.129904      92129.208    
    777800   300.73351      0.3889         0.0023528905  -0.0089049556  -0.062713932   -48229.032      256.05551      22.206237      19.458274      408.42731      176479.41      21.292498      92841.48     
    777900   298.01053      0.38895       -0.0015331408   0.009652666   -0.037563966   -48226.887      253.73707      22.24084       19.422574      408.44201      176436.48      21.109244      92045.752    
    778000   299.26998      0.389          0.00033350229 -0.003358763   -0.0037298207  -48225.925      254.80941      22.256243      19.438984      408.45672      176714.2       21.260105      92706.913    
    778100   302.55486      0.38905        0.0022997123  -0.00040251688  0.040607696   -48223.77       257.60627      22.276159      19.422012      408.47142      176724.27      21.105443      92035.804    
    778200   304.55564      0.3891        -0.00054553511  0.004292013    0.063087722   -48221.289      259.30981      22.260169      19.48526       408.48613      177178.89      21.331155      93023.429    
    778300   303.15708      0.38915        0.0015004786  -0.0062422483   0.095420531   -48224.892      258.11902      22.26415       19.48304       408.50083      177196.77      21.32351       92993.438    
    778400   297.44881      0.3892        -0.0074399021   0.0098368079   0.10858912    -48223.896      253.2588       22.267959      19.524545      408.51553      177611.02      21.326737      93010.859    
    778500   298.60593      0.38925        0.0059479641  -0.012406889    0.20262167    -48225.555      254.24401      22.301101      19.492131      408.53024      177586.45      21.212513      92516.033    
    778600   296.26905      0.3893        -0.0044675769   0.010210748    0.27578051    -48224.348      252.2543       22.305956      19.507427      408.54494      177770.89      21.413621      93396.503    
    778700   299.47272      0.38935        0.0055851145  -0.010769379    0.27021957    -48225.459      254.98202      22.320207      19.50321       408.55964      177852.42      21.483749      93705.742    
    778800   304.26693      0.3894        -0.0051794231   0.013648262    0.29292668    -48226.625      259.06399      22.329405      19.49624       408.57435      177868.53      21.445928      93544.143    
    778900   302.61835      0.38945        0.0036453887  -0.009018674    0.29097202    -48224.241      257.66033      22.306356      19.534114      408.58905      178036.51      21.216748      92547.825    
    779000   298.18         0.3895        -0.0018488499   0.0022583879   0.27866097    -48224.831      253.88136      22.297747      19.515275      408.60376      177802.56      21.417734      93427.89     
    779100   296.95186      0.38955        0.003886136   -0.00026934282  0.25456713    -48227.882      252.83568      22.306204      19.499414      408.61846      177731.83      21.279901      92829.981    
    779200   298.51077      0.3896        -0.0043295514   0.00010456545  0.17826906    -48227.677      254.16299      22.316739      19.461107      408.63316      177472.83      21.262935      92759.305    
    779300   302.03462      0.38965       -0.0025173525  -0.0031253368   0.24967181    -48226.37       257.16332      22.313739      19.44459       408.64787      177304.75      21.491205      93758.505    
    779400   301.75685      0.3897        -0.00078791485 -0.0044209882   0.1664914     -48224.651      256.92682      22.268307      19.446435      408.66257      176966.9       21.237456      92654.822    
    779500   299.58264      0.38975        0.0029841164   0.0053349563   0.21324042    -48224.098      255.07562      22.247456      19.448249      408.67727      176824.06      21.198566      92488.481    
    779600   298.52929      0.3898         0.0038229683   0.0039588856   0.1685903     -48224.363      254.17876      22.233429      19.429386      408.69198      176547.53      21.232794      92641.149    
    779700   299.28874      0.38985        0.001977704   -0.00061189473  0.13729377    -48225.846      254.82538      22.251647      19.402621      408.70668      176455.13      21.135706      92220.861    
    779800   302.47194      0.3899        -0.0018556726   0.0020398632   0.10553514    -48229.654      257.53568      22.247292      19.386605      408.72139      176281.31      21.373533      93261.918    
    779900   297.59973      0.38995        0.0018055217  -0.00095438493  0.070564027   -48228.792      253.3873       22.261177      19.383794      408.73609      176372.1       21.15342       92304.792    
    780000   296.43952      0.39          -0.0027783698  -0.0058241924   0.052126743   -48229.348      252.39945      22.266171      19.385957      408.75079      176437.7       21.40536       93407.515    
    780100   298.94563      0.39005       -0.0076970357   0.0021185359   0.014204434   -48226.611      254.53324      22.256094      19.379728      408.7655       176307.53      21.095353      92058.036    
    780200   300.17291      0.3901         0.005673732   -0.003500622    0.032901195   -48223.777      255.5782       22.266353      19.382754      408.7802       176422.68      21.385327      93326.809    
    780300   302.28328      0.39015       -0.0016797419   0.0037817869  -0.0012369106  -48226.672      257.37504      22.24892       19.387438      408.79491      176333.5       21.138063      92251.052    
    780400   297.95419      0.3902         0.0067763749   0.00097172354  0.11075602    -48226.081      253.68909      22.247135      19.417778      408.80961      176601.64      21.32649       93076.739    
    780500   298.46466      0.39025        0.0024241138   0.0071400421   0.084921389   -48231.398      254.12373      22.289905      19.413539      408.82431      176908.89      21.39493       93378.793    
    780600   292.31712      0.3903         0.00066349638 -0.0054783596   0.085307857   -48229.781      248.88949      22.314652      19.43367       408.83902      177295.33      21.142352      92279.729    
    780700   298.78897      0.39035       -0.0053822758   0.0032521679   0.11845741    -48228.011      254.39986      22.315488      19.479069      408.85372      177722.55      21.184313      92466.2      
    780800   299.76987      0.3904        -0.0028537138  -0.0052695204   0.047848161   -48225.155      255.23503      22.313663      19.497371      408.86842      177881.38      21.365959      93262.411    
    780900   298.74414      0.39045       -0.0077563548  -0.004873863    0.066363367   -48223.814      254.36168      22.312193      19.486926      408.88313      177780.77      21.58722       94231.604    
    781000   297.68571      0.3905         0.0049112169   0.0065368067  -0.0093095349  -48224.205      253.4605       22.31166       19.497376      408.89783      177878.25      21.182994      92470.422    
    781100   301.3866       0.39055        0.0028233318  -0.0023026832  -0.070797892   -48230.437      256.61158      22.308388      19.471661      408.91254      177623.98      21.315742      93053.251    
    781200   297.50434      0.3906         0.0013962079   0.007670651   -0.022652387   -48229.508      253.30607      22.292142      19.484644      408.92724      177619.36      21.369234      93290.125    
    781300   300.55056      0.39065        0.0076354081  -0.0056457177  -0.11852343    -48230.174      255.89974      22.283238      19.523606      408.94194      177909.85      21.211156      92603.343    
    781400   300.45384      0.3907        -0.0053400865   0.0044087397  -0.097065173   -48223.574      255.81739      22.28277       19.522284      408.95665      177900.46      21.410567      93477.292    
    781500   298.53655      0.39075       -0.0014817573  -0.00093381132  0.016816301   -48220.894      254.18494      22.278103      19.532462      408.97135      177962.34      21.275376      92890.396    
    781600   299.95432      0.3908         0.00083889351 -0.0042617251  -0.096115607   -48224.818      255.39208      22.28064       19.51277       408.98605      177809.56      21.303196      93015.202    
    781700   297.46066      0.39085       -0.0068546376   0.0084827953  -0.012628882   -48227.321      253.26889      22.272275      19.508626      409.00076      177711.44      21.386452      93382.08     
    781800   299.44196      0.3909         0.005881493   -0.010550966    0.023943065   -48230.062      254.95584      22.25595       19.529279      409.01546      177775.56      21.166099      92423.247    
    781900   295.94038      0.39095       -0.0034504363   0.0035194394  -0.053276354   -48225.603      251.97447      22.267585      19.504508      409.03017      177649.28      21.422062      93544.293    
    782000   299.60455      0.391          0.0031881786   0.0039824596  -0.14318398    -48226.916      255.09427      22.251714      19.521176      409.04487      177680.75      21.390859      93411.395    
    782100   299.87915      0.39105        0.006298295   -0.0072684272  -0.13763958    -48225.083      255.32808      22.266663      19.504398      409.05957      177653.7       21.270778      92890.355    
    782200   299.23674      0.3911        -0.0027709478   0.0099034974  -0.21570683    -48224.165      254.7811       22.273981      19.488547      409.07428      177574.04      21.518528      93975.665    
    782300   298.78554      0.39115       -0.00050297625 -0.0053361739  -0.20475725    -48226.209      254.39693      22.270205      19.495371      409.08898      177612.49      21.469685      93765.729    
    782400   297.84881      0.3912        -0.0039548793  -0.00066391558 -0.11175752    -48229.012      253.59937      22.273822      19.479902      409.10368      177506.76      21.130581      92288.059    
    782500   297.07269      0.39125       -0.0026807287   0.0030150372  -0.072583712   -48229.793      252.93856      22.260166      19.503328      409.11839      177617.66      21.332958      93175.293    
    782600   299.12792      0.3913         0.0024952805  -0.013930135   -0.11365303    -48225.013      254.68845      22.250199      19.509325      409.13309      177599.1       21.383424      93399.066    
    782700   303.79647      0.39135       -0.0039571961   0.017663406   -0.19488042    -48226.663      258.66343      22.240098      19.519974      409.1478       177621.75      21.186384      92541.759    
    782800   300.45915      0.3914         0.00903455    -0.0089070825  -0.073680991   -48226.179      255.82191      22.245271      19.508286      409.1625       177563.07      21.412449      93532.567    
    782900   299.46295      0.39145       -5.6965037e-05  0.0054157635  -0.073209152   -48227.898      254.97371      22.24581       19.499058      409.1772       177489.76      21.534795      94070.37     
    783000   294.16816      0.3915         0.0032551831   0.001010278   -0.15743005    -48225.722      250.46553      22.23498       19.523323      409.19191      177630.49      21.17427       92498.814    
    783100   295.15064      0.39155       -0.0052235569