LAMMPS (4 May 2022)
  using 1 OpenMP thread(s) per MPI task
#uniaxial tensile test of CNT_13_12_1.696

##---------------INITIALIZATION-------------------------------

units          metal
dimension 	    3
boundary       p p p
atom_style 	atomic
newton 		on


##---------------ATOM DEFINITION------------------------------

read_data 	CNT_13_12_1.696.dat
Reading data file ...
  orthogonal box = (-50 -50 -0.0654907) to (50 50 276.314)
  4 by 4 by 8 MPI processor grid
  reading atoms ...
  5628 atoms
  read_data CPU = 0.074 seconds



##---------------FORCE FIELDS---------------------------------
#Set the formula(s) LAMMPS uses to compute pairwise interactions. In LAMMPS, pair potentials are defined between pairs #of atoms that are within a cutoff distance and the set of active interactions typically changes over time

pair_style 	airebo 3.0

#Specify the pairwise force field coefficients for one or more pairs of atom types. The number and meaning of the coefficients depends on the pair style.

pair_coeff     * * /ascldap/users/bcma/CH.airebo C
Reading airebo potential file /ascldap/users/bcma/CH.airebo with DATE: 2011-10-25


##---------------SETTINGS-------------------------------------

timestep 	0.0005
variable   ts equal 0.0005


##---------------COMPUTES-----stresses in 3 directions and min/max on x and z atom coordinates --------------------------

compute    1 all stress/atom NULL
compute    2 all reduce sum c_1[1] c_1[2] c_1[3]
compute    3 all property/atom x y # true atoms position
compute    4 all reduce min c_3[1] c_3[2]
compute    5 all reduce max c_3[1] c_3[2]


variable   Lx equal lx
variable   Ly equal ly
variable   Lz equal lz
variable   Vol equal vol
variable   thickn equal 3.4
#making the damp parameter timestep dependent
fix		1 all npt temp 300 300 0.05 iso 0 0 0.05 #$(100.0*dt)x 0 0 0.5 y 0 0 0.5 z 0 0 0.5
thermo 	2000
##---------------RELAXATION--------------------------------------

run            50000
Neighbor list info ...
  update every 1 steps, delay 10 steps, check yes
  max neighbors/atom: 2000, page size: 100000
  master list distance cutoff = 12.2
  ghost atom cutoff = 12.2
  binsize = 6.1, bins = 17 17 46
  1 neighbor lists, perpetual/occasional/extra = 1 0 0
  (1) pair airebo, perpetual
      attributes: full, newton on, ghost
      pair build: full/bin/ghost
      stencil: full/ghost/bin/3d
      bin: standard
Per MPI rank memory allocation (min/avg/max) = 3.755 | 3.797 | 3.922 Mbytes
   Step          Temp          E_pair         E_mol          TotEng         Press          Volume    
         0   0             -41625.166      0             -41625.166     -1992.5937      2763794.9    
      2000   4.6165265     -41693.809      0             -41690.451     -62.221862      2683553.6    
      4000   249.36285     -41502.649      0             -41321.275     -75.080994      2593043.7    
      6000   216.44225     -41468.597      0             -41311.168     -21.937193      2810063.2    
      8000   301.76331     -41487.732      0             -41268.246      0.27853147     2590377.1    
     10000   313.88833     -41466.793      0             -41238.488      31.749025      2644897.2    
     12000   315.31187     -41469.135      0             -41239.794      3.8559499      2662187      
     14000   297.22888     -41491.228      0             -41275.039     -7.128377       2657731.3    
     16000   290.19913     -41500.411      0             -41289.335     -24.489027      2661647.7    
     18000   288.33648     -41490.101      0             -41280.38       8.9747788      2674594.2    
     20000   304.21392     -41487.587      0             -41266.318      33.701472      2650593.7    
     22000   301.1523      -41482.548      0             -41263.506      22.93082       2640257.4    
     24000   303.75889     -41478.928      0             -41257.99       0.87100468     2655990      
     26000   295.49032     -41491.638      0             -41276.714     -17.90907       2654619.5    
     28000   304.31788     -41489.937      0             -41268.593     -30.064273      2657951.7    
     30000   304.46956     -41488.141      0             -41266.687     -11.671509      2660843.1    
     32000   301.1316      -41487.837      0             -41268.81       21.771922      2647074.3    
     34000   301.10106     -41487.606      0             -41268.601      22.500903      2652601.2    
     36000   309.12021     -41482.7        0             -41257.862     -1.6996189      2652504      
     38000   300.87834     -41484.137      0             -41265.294     -27.076036      2643265.9    
     40000   304.65311     -41487.861      0             -41266.273     -44.040488      2665935.6    
     42000   297.2383      -41486.107      0             -41269.911      8.9164441      2653016.2    
     44000   299.23081     -41488.059      0             -41270.415      5.841661       2648075      
     46000   293.34867     -41489.266      0             -41275.9       -11.317703      2660311.1    
     48000   298.92915     -41488.095      0             -41270.67      -25.824102      2654105.5    
     50000   302.04718     -41482.963      0             -41263.27       15.597371      2651825.6    
Loop time of 156.539 on 128 procs for 50000 steps with 5628 atoms

Performance: 13.798 ns/day, 1.739 hours/ns, 319.409 timesteps/s
99.8% CPU use with 128 MPI tasks x 1 OpenMP threads

MPI task timing breakdown:
Section |  min time  |  avg time  |  max time  |%varavg| %total
---------------------------------------------------------------
Pair    | 0.037104   | 32.019     | 133.22     | 979.1 | 20.45
Neigh   | 0.00071644 | 0.3486     | 1.4061     | 102.0 |  0.22
Comm    | 0.086036   | 3.5904     | 17.749     | 326.8 |  2.29
Output  | 0.0025693  | 0.0026685  | 0.0031304  |   0.1 |  0.00
Modify  | 10.84      | 119.15     | 155        | 567.6 | 76.12
Other   |            | 1.425      |            |       |  0.91

Nlocal:        43.9688 ave         183 max           0 min
Histogram: 96 0 0 0 0 0 0 0 0 32
Nghost:        257.781 ave        1036 max           0 min
Histogram: 96 0 0 0 0 0 0 0 0 32
Neighs:              0 ave           0 max           0 min
Histogram: 128 0 0 0 0 0 0 0 0 0
FullNghs:      8682.52 ave       36134 max           0 min
Histogram: 96 0 0 0 0 0 0 0 0 32

Total # of neighbors = 1111362
Ave neighs/atom = 197.47015
Neighbor list builds = 378
Dangerous builds = 4


##---------------DEFORMATION--------------------------------------
unfix              1
reset_timestep     0
fix		1 all npt temp 300 300 0.05 x 0 0 0.05 y 0 0 0.05 #$(100.0*dt)
fix        2 all ave/time 1 100 100 c_2[1] c_2[2] c_2[3]
fix        3 all ave/time 1 100 100 v_Lx v_Ly v_Lz v_Vol
fix        4 all  ave/time 1 100 100 c_4[1] c_4[2]
fix        5 all ave/time 1 100 100 c_5[1] c_5[2]
variable   srate equal 1.0e9
variable   srate1 equal "v_srate / 1.0e12"
fix		6 all deform 1 z erate ${srate1} units box remap x
fix		6 all deform 1 z erate 0.001 units box remap x
run            100
Per MPI rank memory allocation (min/avg/max) = 3.755 | 3.798 | 3.924 Mbytes
   Step          Temp          E_pair         E_mol          TotEng         Press          Volume    
         0   302.04718     -41482.963      0             -41263.27       15.597371      2651825.6    
       100   299.40464     -41483.015      0             -41265.244      14.716559      2649614.3    
Loop time of 0.391045 on 128 procs for 100 steps with 5628 atoms

Performance: 11.047 ns/day, 2.172 hours/ns, 255.725 timesteps/s
99.7% CPU use with 128 MPI tasks x 1 OpenMP threads

MPI task timing breakdown:
Section |  min time  |  avg time  |  max time  |%varavg| %total
---------------------------------------------------------------
Pair    | 9.2469e-05 | 0.076706   | 0.32526    |  47.9 | 19.62
Neigh   | 0          | 0          | 0          |   0.0 |  0.00
Comm    | 0.00013306 | 0.007403   | 0.043928   |  15.3 |  1.89
Output  | 8.2361e-05 | 8.7402e-05 | 9.8664e-05 |   0.0 |  0.02
Modify  | 0.048661   | 0.30476    | 0.38864    |  26.3 | 77.93
Other   |            | 0.002091   |            |       |  0.53

Nlocal:        43.9688 ave         184 max           0 min
Histogram: 96 0 0 0 0 0 0 0 0 32
Nghost:        258.031 ave        1039 max           0 min
Histogram: 96 0 0 0 0 0 0 0 0 32
Neighs:              0 ave           0 max           0 min
Histogram: 128 0 0 0 0 0 0 0 0 0
FullNghs:         8680 ave       36326 max           0 min
Histogram: 96 0 0 0 0 0 0 0 0 32

Total # of neighbors = 1111040
Ave neighs/atom = 197.41294
Neighbor list builds = 0
Dangerous builds = 0
##---------------THERMO-OUTPUTS--------------------------------------
variable cntdiameter equal ((f_5[1]-f_4[1])+(f_5[2]-f_4[2]))/2
#actual volume of cnt
variable   CorVol equal 3.14*v_cntdiameter*v_thickn*f_3[3]
#convertion factor of stress from barr to GPA
variable   ConvoFac equal 1/1.0e4
variable   sigmaxx equal f_2[1]*v_ConvoFac/v_CorVol
variable   sigmayy equal f_2[2]*v_ConvoFac/v_CorVol
variable   sigmazz equal f_2[3]*v_ConvoFac/v_CorVol
variable   StrainPerTs equal v_srate1*v_ts
variable   strain equal v_StrainPerTs*step
thermo 	100
thermo_style custom step temp v_strain v_sigmaxx v_sigmayy v_sigmazz pe ke lx ly lz vol v_cntdiameter v_CorVol
thermo_modify lost warn


##---------------DEFORMATION--------------------------------------
dump           1 all atom 5000 /ascldap/users/bcma/CNT_13_12_1.696/CNT_13_12_1.696.lammpstrj
run            1000000
Per MPI rank memory allocation (min/avg/max) = 4.755 | 4.798 | 4.924 Mbytes
   Step          Temp         v_strain      v_sigmaxx      v_sigmayy      v_sigmazz        PotEng         KinEng           Lx             Ly             Lz           Volume     v_cntdiameter     v_CorVol   
       100   299.40464      5e-05          0.0069975359  -0.0107939     -0.14897622    -41483.015      217.77102      98.58348       98.591151      272.60924      2649614.3      17.444841      50769.769    
       200   295.5378       0.0001        -0.0045368139   0.016867638   -0.049550343   -41485.489      214.95849      98.505419      98.633652      272.62287      2648790        17.497259      50924.868    
       300   294.74755      0.00015       -0.0019386651  -0.005553179   -0.041082171   -41487.364      214.38369      98.528836      98.663511      272.6365       2650354.2      17.489869      50905.903    
       400   301.87284      0.0002        -0.0075582957   0.0030085291   0.017049205   -41491.506      219.56625      98.440522      98.584289      272.65013      2645984.7      17.445724      50779.954    
       500   294.26733      0.00025        0.01478437     0.0034089832   0.050213105   -41484.817      214.03441      98.551216      98.5695        272.66376      2648695.1      17.481566      50886.827    
       600   301.8132       0.0003         0.0011768313  -0.0094492666   0.13336712    -41487.759      219.52287      98.460431      98.533185      272.67739      2645412.4      17.564165      51129.817    
       700   298.69537      0.00035       -0.012303828   -0.0020147304   0.16517506    -41483.782      217.25513      98.390544      98.49613       272.69102      2642672.7      17.657912      51405.288    
       800   301.49999      0.0004         0.0020478553   0.010541957    0.18313222    -41484.261      219.29506      98.328533      98.375261      272.70465      2637898.1      17.641295      51359.479    
       900   303.37975      0.00045        0.002822858    0.0045832506   0.259663      -41484.056      220.6623       98.487308      98.308161      272.71828      2640487.4      17.583342      51193.319    
      1000   302.07823      0.0005        -0.017222046   -0.011549705    0.26144849    -41484.267      219.71565      98.442717      98.251164      272.73192      2637893.5      17.623738      51313.494    
      1100   297.90444      0.00055        0.015146849    0.0068860905   0.35138865    -41485.662      216.67985      98.461047      98.10739       272.74555      2634655.5      17.579989      51188.672    
      1200   300.24281      0.0006         0.010080465   -0.0085932492   0.39557268    -41490.604      218.38066      98.42748       98.244668      272.75918      2637574.5      17.578064      51185.627    
      1300   301.50668      0.00065       -0.006210674    0.00077199815  0.47226709    -41492.58       219.29993      98.406043      98.199474      272.77281      2635918.7      17.556044      51124.06     
      1400   297.98217      0.0007        -0.0081719597   0.0048399937   0.48393064    -41488.657      216.73639      98.284409      98.202174      272.78644      2632864.5      17.442518      50796.005    
      1500   302.13565      0.00075        0.00079523784  0.010898158    0.56030946    -41484.682      219.75741      98.233801      98.074684      272.80007      2628223.8      17.385272      50631.823    
      1600   301.71891      0.0008         0.0084861741  -0.0079472409   0.55370357    -41482.785      219.4543       98.295814      98.127827      272.8137       2631439.4      17.469792      50880.515    
      1700   303.53574      0.00085       -0.012765831   -0.01171007     0.62839766    -41485.94       220.77576      98.038503      98.102779      272.82733      2624012.2      17.498169      50965.711    
      1800   296.54067      0.0009         0.012757819    0.0046899815   0.66975071    -41485.48       215.68792      97.992105      98.143404      272.84096      2623987.6      17.453045      50836.82     
      1900   300.46396      0.00095        0.00039627668  0.015126887    0.75666225    -41489.377      218.54151      97.961651      98.228462      272.85459      2625576.6      17.443153      50810.545    
      2000   303.64994      0.001         -0.0099511773  -0.021247338    0.78288605    -41490.325      220.85882      98.044621      98.236163      272.86822      2628137.7      17.395855      50675.303    
      2100   302.00612      0.00105        0.0025221243   0.0011737969   0.8011279     -41488.962      219.6632       97.827933      98.073358      272.88185      2618114.1      17.430706      50779.361    
      2200   294.26096      0.0011         0.0076997412   0.016024648    0.88861612    -41485.366      214.02978      97.854921      98.080595      272.89548      2619160.5      17.451725      50843.134    
      2300   298.93114      0.00115       -0.008495678   -0.0040605351   0.9153385     -41487.568      217.42662      97.757402      98.112063      272.90911      2617520.5      17.497079      50977.812    
      2400   300.5294       0.0012        -0.00848774    -0.003190123    0.95057017    -41483.47       218.58911      97.655954      98.047406      272.92274      2613211.5      17.572547      51200.246    
      2500   301.72448      0.00125        0.016009729    0.0058514006   0.94245617    -41482.584      219.45835      97.596314      98.045252      272.93637      2611688.6      17.603285      51292.368    
      2600   304.23027      0.0013        -0.0038093269   0.0039538402   1.0433436     -41488.227      221.28093      97.662086      98.081311      272.95         2614540.4      17.549969      51139.569    
      2700   301.07856      0.00135        0.0034301544  -0.017243568    1.0993398     -41490.294      218.98854      97.578583      98.136794      272.96363      2613913.2      17.52329       51064.379    
      2800   297.03891      0.0014        -0.0052938709   0.0053997468   1.1408883     -41487.799      216.05031      97.476022      97.990949      272.97726      2607415.5      17.446932      50844.404    
      2900   298.76128      0.00145        0.024505491    0.0086752791   1.2020917     -41487.294      217.30307      97.461709      98.091156      272.99089      2609828.9      17.457174      50876.791    
      3000   297.84394      0.0015        -0.027442164   -0.0023023452   1.2639016     -41482.655      216.63585      97.376769      98.010171      273.00452      2605531.6      17.339539      50536.481    
      3100   298.41256      0.00155        0.0007619684  -0.0087534909   1.2946307     -41477.965      217.04943      97.337568      97.815247      273.01815      2599432.7      17.438445      50827.282    
      3200   301.54025      0.0016         0.0092496566   0.014726047    1.3773477     -41480.16       219.32435      97.354489      97.732441      273.03179      2597813.3      17.375336      50645.869    
      3300   302.1707       0.00165        0.0017575286  -0.011147511    1.3837945     -41483.384      219.78291      97.516403      97.735357      273.04542      2602341.4      17.386318      50680.412    
      3400   302.22386      0.0017        -0.014617593    0.0019440196   1.4637208     -41487.11       219.82157      97.43144       97.648041      273.05905      2597880.8      17.367467      50627.989    
      3500   301.94132      0.00175        0.0078894624   0.0050772357   1.5189482     -41489.643      219.61607      97.544593      97.531911      273.07268      2597934.4      17.400782      50727.637    
      3600   298.22486      0.0018         0.0045177803   0.002970255    1.5369943     -41488.841      216.91291      97.524415      97.531936      273.08631      2597527.3      17.424699      50799.896    
      3700   295.0881       0.00185       -0.014497554   -0.017040596    1.5835085     -41485.095      214.63139      97.478792      97.428721      273.09994      2593694        17.500966      51024.792    
      3800   301.14736      0.0019         0.012769284    0.0081536725   1.6222959     -41482.958      219.03858      97.301089      97.313187      273.11357      2586024.7      17.568617      51224.588    
      3900   303.7572       0.00195        0.0049473072   0.010735591    1.638551      -41484.219      220.93684      97.382901      97.295821      273.1272       2587866.3      17.501949      51032.75     
      4000   301.9041       0.002         -0.014048695   -0.011004469    1.6581108     -41485.212      219.58899      97.371983      97.254924      273.14083      2586617.6      17.534424      51129.994    
      4100   296.29526      0.00205       -0.0061256867  -0.0031596107   1.7593515     -41484.822      215.50942      97.314249      97.058109      273.15446      2579981.3      17.631223      51414.825    
      4200   299.55261      0.0021         0.024934421    0.0098032307   1.7998874     -41489.384      217.87865      97.343555      97.204546      273.16809      2584781        17.549484      51179.018    
      4300   299.66439      0.00215       -0.010557057   -0.0037866155   1.8624336     -41490.86       217.95994      97.279156      97.248236      273.18172      2584360.9      17.452921      50899.954    
      4400   292.32835      0.0022        -0.0057145888  -0.01112684     1.932832      -41486.107      212.6241       97.117249      97.162486      273.19535      2577913.2      17.519441      51096.503    
      4500   297.43358      0.00225        0.007189477    0.02098551     1.9509178     -41484.785      216.33737      97.012454      97.112096      273.20898      2573924.4      17.455477      50912.487    
      4600   303.79862      0.0023        -0.0019515167  -0.0012486515   2.0148464     -41484.466      220.96697      96.979554      97.132393      273.22261      2573717.7      17.511697      51079.014    
      4700   303.1973       0.00235       -0.0048624513  -0.010755024    2.0310315     -41481.973      220.52959      96.88423       97.12584       273.23624      2571142.7      17.494071      51030.146    
      4800   301.12601      0.0024         0.011261431   -0.0035088429   2.0732743     -41483.997      219.02305      96.801955      97.18581       273.24987      2570673.7      17.455134      50919.107    
      4900   296.76526      0.00245       -0.0006577193   0.0080439691   2.1643834     -41485.313      215.85127      96.64536       97.341561      273.2635       2570756.5      17.340948      50588.534    
      5000   302.96546      0.0025        -0.012617531   -0.0016642208   2.2240067     -41490.306      220.36097      96.600413      97.35809       273.27713      2570125.4      17.323407      50539.884    
      5100   301.3664       0.00255       -0.0035192402   0.0006314411   2.2127474     -41488.544      219.1979       96.449382      97.271274      273.29076      2563946.8      17.371395      50682.414    
      5200   297.28317      0.0026         0.012464097    0.003783536    2.2524194     -41483.193      216.22797      96.401856      97.246927      273.30439      2562169.7      17.538135      51171.441    
      5300   297.06123      0.00265        0.0016067541  -0.0054584963   2.2801422     -41478.342      216.06654      96.479879      97.100513      273.31802      2560510.4      17.630227      51442.705    
      5400   305.23278      0.0027        -0.0063330767  -0.019669088    2.3112247     -41481.369      222.0101       96.375191      96.987857      273.33166      2554892        17.664743      51545.989    
      5500   302.16388      0.00275        0.013933233    0.020686639    2.3762845     -41481.754      219.77794      96.352136      96.938346      273.34529      2553104.2      17.60706       51380.233    
      5600   300.83886      0.0028        -0.0063258266  -0.0018971277   2.4166374     -41487.51       218.8142       96.430433      96.969845      273.35892      2556136.6      17.520284      51129.555    
      5700   302.05536      0.00285       -0.0065054902  -0.0023373319   2.5131158     -41490.196      219.69901      96.365429      96.862931      273.37255      2551724.4      17.469761      50984.657    
      5800   299.75123      0.0029         0.0028472979   0.0058725471   2.5191775     -41488.743      218.02311      96.371956      96.77527       273.38618      2549714.9      17.402039      50789.545    
      5900   300.24276      0.00295       -0.0020163657   0.0079842137   2.5927764     -41486.156      218.38062      96.359458      96.697883      273.39981      2547472.6      17.376924      50718.772    
      6000   302.17546      0.003         -0.010351084   -0.013452318    2.6278422     -41482.474      219.78636      96.43863       96.509129      273.41344      2544715.8      17.429665      50875.246    
      6100   304.90546      0.00305        0.018018176   -0.0024753918   2.655794      -41483.623      221.77202      96.251897      96.407106      273.42707      2537230.1      17.375117      50718.554    
      6200   297.99368      0.0031        -0.0046248511   0.010640794    2.7155288     -41480.604      216.74476      96.353841      96.492125      273.4407       2542284        17.38787       50758.314    
      6300   298.50976      0.00315        0.0017067034  -0.0057152111   2.7694295     -41483.66       217.12013      96.258804      96.397048      273.45433      2537400.4      17.405009      50810.877    
      6400   299.37141      0.0032        -0.0009900878   0.0024335028   2.7524223     -41485.42       217.74685      96.261938      96.433451      273.46796      2538567.8      17.388264      50764.524    
      6500   300.19686      0.00325        0.0034287377   0.0026203926   2.8676672     -41487.142      218.34724      96.208432      96.350208      273.48159      2535093        17.366372      50703.137    
      6600   301.07924      0.0033        -0.016333965   -0.0017900139   2.8665626     -41489.632      218.98903      96.145778      96.339297      273.49522      2533281.4      17.465692      50995.655    
      6700   295.40619      0.00335        0.0052920519   0.0016090063   2.9667074     -41487.408      214.86276      96.056251      96.095829      273.50885      2524652.2      17.48925       51066.983    
      6800   297.9688       0.0034         0.0092778143   0.00014323501  2.977884      -41484.545      216.72666      96.055511      96.138431      273.52248      2525877.9      17.566459      51294.982    
      6900   299.93637      0.00345        0.0017099883  -0.014687947    3.0089609     -41481.365      218.15777      95.924283      96.168058      273.53611      2523330.2      17.546095      51238.072    
      7000   300.69876      0.0035        -0.003003379    0.002969991    3.0843448     -41481.127      218.7123       95.798201      96.190068      273.54974      2520715.9      17.529864      51193.226    
      7100   299.27804      0.00355        0.007822784    0.010548639    3.1540145     -41484.278      217.67894      95.688529      96.256673      273.56337      2519699.1      17.535588      51212.494    
      7200   304.014        0.0036        -0.014029419    0.0035979381   3.1493885     -41490.988      221.12362      95.647098      96.24647       273.577        2518466.6      17.521368      51173.515    
      7300   300.92139      0.00365       -0.010883901   -0.0099289126   3.2261458     -41488.6        218.87422      95.610456      96.126229      273.59063      2514481.9      17.44912       50965.042    
      7400   302.68604      0.0037         0.018849683    0.0052727487   3.2608346     -41487.308      220.15773      95.462923      96.088671      273.60426      2509746        17.448982      50967.179    
      7500   300.82368      0.00375        0.0029809885   0.00099375887  3.3357015     -41481.359      218.80315      95.49661       96.073258      273.6179       2510354        17.502328      51125.544    
      7600   304.34418      0.0038        -0.0058701014  -0.0063835159   3.3236776     -41478.868      221.36377      95.372008      96.044562      273.63153      2506454.6      17.500181      51121.822    
      7700   301.24679      0.00385       -0.00013696849  0.010108021    3.4335295     -41478.237      219.1109       95.388739      95.945787      273.64516      2504440.9      17.374393      50756.896    
      7800   303.82912      0.0039         0.00011608194  0.0012532631   3.4608105     -41482.633      220.98915      95.42693       95.89705       273.65879      2504295.6      17.343253      50668.447    
      7900   300.29825      0.00395       -0.0043688851  -0.015166896    3.5118504     -41484.972      218.42099      95.452473      95.744022      273.67242      2501093.2      17.443439      50963.68     
      8000   296.84091      0.004          0.013446976    0.0007642334   3.55308       -41486.472      215.9063       95.345791      95.639525      273.68605      2495695.5      17.462359      51021.498    
      8100   300.20646      0.00405       -0.0044601319   0.01112307     3.632363      -41488.676      218.35422      95.238598      95.725542      273.69968      2495256        17.413493      50881.256    
      8200   303.33358      0.0041        -0.0066322235  -0.0048570107   3.5937023     -41486.106      220.62872      95.226672      95.627184      273.71331      2492504.1      17.478462      51073.635    
      8300   299.5596       0.00415       -0.0011956048  -0.00044384505  3.6607128     -41480.521      217.88372      95.055775      95.574863      273.72694      2486793.5      17.527521      51219.541    
      8400   300.69473      0.0042         0.0099577225   0.010645163    3.6599452     -41481.905      218.70936      95.107554      95.523096      273.74057      2486924.3      17.589496      51403.207    
      8500   301.03967      0.00425       -0.0029560199  -0.01543156     3.7656226     -41484.738      218.96025      95.074745      95.556579      273.7542       2487061.7      17.495416      51130.814    
      8600   295.71821      0.0043        -0.011740615    0.0079884104   3.7758659     -41485.237      215.08971      94.954407      95.429008      273.76783      2480721.1      17.447195      50992.427    
      8700   293.06895      0.00435        0.017084282    0.0068990948   3.8658687     -41489.523      213.16277      94.998849      95.348143      273.78146      2479902.6      17.442184      50980.319    
      8800   297.34546      0.0044        -0.010814383   -0.0052522248   3.9263935     -41493.405      216.27328      95.041463      95.366831      273.79509      2481624.8      17.407693      50882.04     
      8900   299.46491      0.00445       -0.0017552814  -0.015402456    3.9648602     -41489.41       217.81486      94.926919      95.171776      273.80872      2473687.5      17.444269      50991.49     
      9000   297.39514      0.0045         0.012557044    0.015562062    4.0105151     -41483.936      216.30941      94.82098       95.107119      273.82235      2469371.1      17.448724      51007.05     
      9100   301.78157      0.00455       -0.0022184716  -0.0009871999   3.9858968     -41482.719      219.49987      94.911805      95.119363      273.83598      2472177.7      17.386813      50828.6      
      9200   303.30093      0.0046        -0.012131306   -0.010284281    4.0845855     -41481.884      220.60497      94.793513      94.96916       273.84961      2465320.3      17.388107      50834.914    
      9300   298.56787      0.00465        0.0052411631   0.0084145503   4.1168353     -41480.826      217.16239      94.790417      94.951441      273.86324      2464902.5      17.418838      50927.292    
      9400   296.41405      0.0047         0.0080014854   0.0050112252   4.194991      -41484.299      215.59582      94.702188      94.900909      273.87687      2461420.1      17.411712      50908.991    
      9500   299.30059      0.00475       -0.005570746   -0.012561175    4.1964943     -41486.5        217.69533      94.609323      94.927583      273.8905       2459820        17.466053      51070.417    
      9600   293.49649      0.0048         0.0012036141   0.0032852888   4.2417874     -41480.212      213.47374      94.462787      94.831262      273.90413      2453640.2      17.544483      51302.299    
      9700   305.44162      0.00485        0.0075935207   0.007986188    4.2310529     -41486.706      222.16199      94.389003      94.942539      273.91777      2454722.7      17.608018      51490.644    
      9800   302.09001      0.0049        -0.014612951   -0.0021146052   4.3048926     -41484.12       219.72421      94.339369      94.869188      273.9314       2451658.4      17.617118      51519.818    
      9900   298.39774      0.00495       -0.0059498171  -0.002599322    4.3361779     -41481.515      217.03865      94.224917      94.726191      273.94503      2445114.8      17.576011      51402.163    
     10000   301.77599      0.005          0.014374933    0.01137949     4.4160679     -41482.989      219.49581      94.219118      94.719036      273.95866      2444901.3      17.559869      51357.51     
     10100   301.39008      0.00505       -0.008529581   -0.0092510266   4.4321169     -41482.509      219.21512      94.239299      94.676327      273.97229      2444444        17.465628      51084.424    
     10200   302.554        0.0051         0.0025455659  -0.0010340696   4.5495079     -41484.227      220.06169      94.159332      94.538197      273.98592      2438927.7      17.451068      51044.376    
     10300   302.89574      0.00515        0.015479689    0.0019274608   4.5830433     -41484.958      220.31026      94.101628      94.508092      273.99955      2436778.1      17.436004      51002.851    
     10400   300.94061      0.0052        -0.0070588663  -0.0039575282   4.6354722     -41484.349      218.8882       94.059682      94.569268      274.01318      2437389.8      17.383797      50852.669    
     10500   301.93877      0.00525       -0.01441437     0.00066883334  4.6365164     -41484.693      219.61421      93.950878      94.406457      274.02681      2430499.8      17.350296      50757.192    
     10600   298.05169      0.0053         0.012201388    0.0078902284   4.7439422     -41477.508      216.78695      93.908635      94.408593      274.04044      2429582.8      17.380742      50848.791    
     10700   303.78515      0.00535        0.0003909258  -0.0093368271   4.7498012     -41478.165      220.95717      93.851477      94.327318      274.05407      2426134.4      17.360743      50792.809    
     10800   298.67418      0.0054        -0.0026331167  -0.0049032645   4.8059302     -41477.839      217.23972      93.742163      94.302313      274.0677       2422786.6      17.349833      50763.414    
     10900   297.14814      0.00545        0.0072734337   0.0083536301   4.8396173     -41480.437      216.12976      93.588425      94.246194      274.08133      2417494        17.446283      51048.151    
     11000   298.98179      0.0055        -0.0092790885   0.00768088     4.8786731     -41482.284      217.46346      93.624425      94.309816      274.09496      2420176.9      17.530461      51297.008    
     11100   305.04591      0.00555       -0.010057046   -0.010304852    4.8834674     -41486.237      221.87418      93.511611      94.153179      274.10859      2413365.9      17.533506      51308.47     
     11200   294.83512      0.0056         0.013186924    0.0072267036   4.9688484     -41479.659      214.44739      93.444291      94.063573      274.12222      2409453.2      17.57434       51430.521    
     11300   297.98999      0.00565        0.0049535351   0.0025886025   4.9891403     -41479.154      216.74208      93.463617      94.044322      274.13585      2409578.1      17.45451       51082.383    
     11400   304.60155      0.0057        -0.0069400585  -0.015290163    5.0630095     -41479.876      221.55097      93.423213      93.9812        274.14948      2407039.5      17.468225      51125.066    
     11500   302.87385      0.00575        0.0010925248   0.0071716876   5.0437356     -41478.994      220.29434      93.277534      93.880573      274.16311      2400832.2      17.539293      51335.615    
     11600   298.25788      0.0058         0.0039297619   0.0061785497   5.1402621     -41481.27       216.93692      93.34533       93.885842      274.17674      2402831.5      17.527094      51302.46     
     11700   297.04441      0.00585       -0.010166374   -0.018494       5.158354      -41482.246      216.05431      93.264788      93.774783      274.19037      2398037.6      17.497573      51218.598    
     11800   301.11089      0.0059         0.0091920713   0.011425814    5.1972541     -41484.022      219.01205      93.143216      93.692817      274.204        2392937.3      17.491813      51204.281    
     11900   299.38378      0.00595        0.0041339299   0.012169558    5.2644793     -41481.364      217.75585      93.082062      93.703537      274.21764      2391758.7      17.412681      50975.17     
     12000   306.21593      0.006         -0.016134144   -0.013351258    5.3281691     -41480.385      222.72519      93.031403      93.646884      274.23127      2389130.5      17.327665      50728.809    
     12100   304.5384       0.00605        0.010345845    0.0017089736   5.4016447     -41477.208      221.50504      92.894658      93.528731      274.2449       2382727.3      17.363662      50836.722    
     12200   301.08101      0.0061         0.01370183     0.016331458    5.368673      -41477.899      218.99032      92.943152      93.499062      274.25853      2383333.4      17.405883      50962.867    
     12300   304.0746       0.00615       -0.0151247     -0.022666663    5.4174644     -41482.547      221.1677       92.912301      93.460267      274.27216      2381672        17.453469      51104.735    
     12400   298.60119      0.0062        -0.0042412028   0.0045060072   5.4562121     -41481.307      217.18663      92.732155      93.424105      274.28579      2376252.6      17.505503      51259.643    
     12500   295.59942      0.00625        0.010389878    0.013637405    5.5268314     -41480.599      215.0033       92.710542      93.332734      274.29942      2373493.2      17.538638      51359.221    
     12600   298.19672      0.0063        -0.0014819242  -0.018667921    5.5187889     -41481.439      216.89244      92.620037      93.399571      274.31305      2372992.1      17.509028      51275.06     
     12700   304.91087      0.00635       -0.010430501    0.0027073822   5.6043631     -41479.562      221.77596      92.386021      93.298797      274.32668      2364560.1      17.477467      51185.177    
     12800   300.02081      0.0064         0.015373403    0.0054135019   5.610605      -41475.051      218.21918      92.357058      93.335582      274.34031      2364868.3      17.482523      51202.528    
     12900   301.29549      0.00645       -0.0065197751   0.001265798    5.7049174     -41479.25       219.14632      92.284858      93.312738      274.35394      2362558.6      17.452221      51116.32     
     13000   295.57244      0.0065         0.0011349343  -0.0070512874   5.7224285     -41479.683      214.98368      92.181163      93.184814      274.36757      2356785.7      17.483285      51209.849    
     13100   298.85958      0.00655        0.0052403227   0.019143438    5.7815399     -41481.894      217.37457      92.093195      93.180646      274.3812       2354548.3      17.474466      51186.559    
     13200   301.27616      0.0066        -0.019634644   -0.0039976181   5.8278947     -41481.436      219.13226      92.205251      93.083842      274.39483      2355081.2      17.443587      51098.647    
     13300   299.98964      0.00665        0.010006623   -0.010902503    5.8663267     -41478.231      218.19652      92.080027      92.956778      274.40846      2348789        17.453718      51130.865    
     13400   310.41433      0.0067         0.0061976214   0.0087870327   5.9264026     -41479.566      225.77888      92.074889      92.803692      274.42209      2344906.5      17.434661      51077.571    
     13500   306.32601      0.00675        6.4914348e-05 -0.0034463407   6.0128103     -41477.179      222.80525      92.101601      92.800545      274.43572      2345623.7      17.379162      50917.509    
     13600   301.96566      0.0068        -0.016546027   -0.012975874    6.0223634     -41478.592      219.63377      91.994207      92.565959      274.44935      2337082.3      17.477876      51209.265    
     13700   299.94881      0.00685        0.018886711    0.013878931    6.0208699     -41478.744      218.16682      91.953887      92.516067      274.46298      2334914.8      17.538431      51389.241    
     13800   299.4093       0.0069        -0.0010451632   0.0019244957   6.0341385     -41480.123      217.77441      91.935138      92.471757      274.47661      2333436.5      17.587174      51534.622    
     13900   297.19734      0.00695       -0.012770925   -0.0090347239   6.1360953     -41479.942      216.16554      91.88394       92.396951      274.49024      2330366.2      17.521025      51343.339    
     14000   296.9939       0.007          0.0078370149   0.010317007    6.205516      -41479.72       216.01757      91.741693      92.315497      274.50388      2324822.7      17.518741      51339.195    
     14100   298.71922      0.00705        0.00035493019  0.0058479353   6.2019521     -41477.894      217.27248      91.752609      92.381552      274.51751      2326878.6      17.572343      51498.833    
     14200   305.11338      0.0071        -0.0026094651  -0.012616231    6.277782      -41478.797      221.92325      91.597136      92.246605      274.53114      2319657.7      17.511387      51322.739    
     14300   301.83216      0.00715        0.0018143434   0.0015892362   6.2922711     -41476.107      219.53667      91.529466      92.185011      274.54477      2316511.2      17.503631      51302.556    
     14400   299.46688      0.0072         0.0095348149   0.0033595248   6.3741417     -41479.448      217.81629      91.394002      92.222284      274.5584       2314132.9      17.493197      51274.518    
     14500   297.64508      0.00725       -0.016245772   -0.010093986    6.3838063     -41481.538      216.49121      91.282687      92.205771      274.57203      2311015.2      17.475593      51225.464    
     14600   299.7781       0.0073         0.0049589849   0.011423655    6.4716081     -41481.394      218.04265      91.209324      92.064771      274.58566      2305741.2      17.467158      51203.281    
     14700   300.29221      0.00735        0.0088462528   0.0038523667   6.5047763     -41478.969      218.41659      91.204945      92.090541      274.59929      2306390.4      17.426773      51087.43     
     14800   302.90203      0.0074        -0.010381762   -0.016239184    6.5877685     -41479.662      220.31483      91.17039       92.009722      274.61292      2303607.6      17.401485      51015.83     
     14900   300.09872      0.00745        0.0062710263   0.0054685713   6.5972267     -41478.491      218.27586      91.049517      91.839027      274.62655      2296399.5      17.426799      51092.578    
     15000   297.24735      0.0075         0.0030771374   0.0048715538   6.6481812     -41476.253      216.20192      91.018225      91.812211      274.64018      2295053.9      17.43716       51125.493    
     15100   302.58756      0.00755       -0.0056069145  -0.0015324385   6.6810592     -41479.212      220.08611      90.994259      91.655936      274.65381      2290657.8      17.402336      51025.921    
     15200   302.51699      0.0076         0.0077998123  -0.013168891    6.7028553     -41479.391      220.03478      90.962421      91.592952      274.66744      2288396.4      17.478465      51251.687    
     15300   301.93818      0.00765       -0.0017953822   0.014945107    6.7568339     -41480.055      219.61378      90.792357      91.555202      274.68107      2283289.9      17.47616       51247.47     
     15400   295.40628      0.0077        -0.0085441611   0.0021815077   6.7971798     -41478.188      214.86282      90.929828      91.459793      274.6947       2284477.4      17.451039      51176.345    
     15500   288.5301       0.00775       -0.002666321   -0.0045466773   6.8272307     -41478.226      209.86145      90.844704      91.293104      274.70833      2278292.2      17.462726      51213.158    
     15600   295.57298      0.0078         0.0070633706   0.0074878033   6.8552757     -41480.965      214.98407      90.841698      91.207901      274.72196      2276203.5      17.523379      51393.586    
     15700   300.80012      0.00785        0.001348974    0.00046256147  6.942858      -41479.335      218.78602      90.794949      91.075744      274.73559      2271848.4      17.504225      51339.958    
     15800   301.02142      0.0079        -0.02055428    -0.0092186549   6.9642529     -41477.315      218.94698      90.707124      91.046661      274.74922      2269038.6      17.425413      51111.336    
     15900   301.94424      0.00795        0.022579114    0.00617027     7.0736438     -41476.676      219.61819      90.68533       90.852131      274.76285      2263758.9      17.430034      51127.428    
     16000   298.78308      0.008          0.00087807713 -0.0053855181   7.0663        -41474.507      217.31893      90.56984       90.993067      274.77648      2264495.5      17.422401      51107.572    
     16100   300.74687      0.00805       -0.0063707015   0.00060082898  7.1656854     -41480.043      218.74728      90.486618      90.841897      274.79011      2258768.2      17.405893      51061.679    
     16200   298.15337      0.0081         0.0022211683   0.0055655951   7.1271854     -41480.791      216.86091      90.358666      90.778939      274.80375      2254122.7      17.467308      51244.388    
     16300   299.63202      0.00815        0.0060961697   0.0050131809   7.2929333     -41479.11       217.9364       90.427058      90.782818      274.81738      2256037.2      17.397309      51041.561    
     16400   299.58345      0.0082        -0.013181908   -0.020591913    7.283465      -41473.239      217.90108      90.232224      90.662996      274.83101      2248316.5      17.306032      50776.285    
     16500   300.32341      0.00825        0.0078118653   0.017026423    7.307083      -41473.673      218.43928      90.064721      90.702601      274.84464      2245234.6      17.422439      51120.361    
     16600   301.09384      0.0083        -3.718624e-05  -0.00035137668  7.3496426     -41477.121      218.99965      90.095603      90.591614      274.85827      2243367.4      17.387714      51021.002    
     16700   296.89138      0.00835       -0.0080678504  -0.016713831    7.3389056     -41477.026      215.94301      89.972899      90.515703      274.8719       2238545.8      17.514001      51394.116    
     16800   295.3259       0.0084         0.014916129    0.011115888    7.3493737     -41477.342      214.80436      89.893155      90.423516      274.88553      2234394.7      17.575549      51577.282    
     16900   303.58044      0.00845        0.00541935    -0.0050450793   7.4315236     -41479.517      220.80827      89.809685      90.478904      274.89916      2233798.1      17.495023      51343.517    
     17000   304.62673      0.0085        -0.011513976   -0.0023964812   7.4744461     -41475.52       221.56929      89.716224      90.384576      274.91279      2229257.6      17.433325      51164.988    
     17100   304.15641      0.00855        0.0033836464   0.006779479    7.5405176     -41476.173      221.2272       89.614748      90.280383      274.92642      2224279.5      17.454724      51230.331    
     17200   299.76323      0.0086         0.00085110241  0.0063225018   7.5524242     -41476.777      218.03184      89.535803      90.252863      274.94005      2221752.8      17.495573      51352.769    
     17300   295.51019      0.00865       -0.021334491   -0.0035162642   7.580382      -41475.579      214.9384       89.461384      90.15847       274.95368      2217694.3      17.514412      51410.614    
     17400   296.39233      0.0087         0.011423677    0.0077143021   7.6521932     -41474.584      215.58002      89.472488      89.977959      274.96731      2213638.6      17.561135      51550.318    
     17500   303.97239      0.00875        0.0092804285  -0.0034709946   7.7382531     -41473.726      221.09335      89.447403      89.912957      274.98094      2211528.9      17.453015      51235.474    
     17600   303.15982      0.0088        -0.0033459869  -0.01208648     7.7911297     -41472.659      220.50234      89.380832      89.867232      274.99457      2208868.6      17.428425      51165.823    
     17700   296.1464       0.00885        0.0077526754  -0.001296812    7.8294134     -41472.089      215.40115      89.224474      89.844394      275.0082       2204553.4      17.399954      51084.771    
     17800   293.22618      0.0089        -0.0083609836   0.015458282    7.8380242     -41472.716      213.27713      89.096391      89.844803      275.02183      2201507.9      17.452249      51240.842    
     17900   295.97575      0.00895       -0.0064992363  -0.0055005418   7.8617396     -41473.398      215.27703      89.10485       89.731773      275.03546      2199056        17.513022      51421.826    
     18000   300.63422      0.009          0.0097726261  -0.007514376    7.9463276     -41473.641      218.66535      88.949882      89.582652      275.04909      2191691.9      17.469704      51297.177    
     18100   300.55151      0.00905        0.0050682387   0.0052324076   7.9704964     -41473.154      218.60519      88.884479      89.673373      275.06272      2192407        17.473579      51311.096    
     18200   303.75743      0.0091        -0.0016997116  -0.0014914695   8.0267197     -41476.118      220.937        88.764648      89.624267      275.07635      2188360.7      17.47859       51328.356    
     18300   299.17131      0.00915       -0.0045533966  -0.00013731065  8.0179155     -41473.385      217.6013       88.71465       89.526657      275.08999      2184854.3      17.483704      51345.917    
     18400   303.6885       0.0092         0.00073881272  0.0088541592   8.0746537     -41477.581      220.88687      88.602649      89.451115      275.10362      2180362.8      17.55767       51565.697    
     18500   296.74853      0.00925       -0.0086775686  -0.0030671816   8.0893032     -41473.638      215.8391       88.59963       89.337643      275.11725      2177630.6      17.519332      51455.649    
     18600   296.63433      0.0093        -0.0046509881  -0.0016417147   8.1589025     -41471.935      215.75604      88.486146      89.211874      275.13088      2171887.3      17.543252      51528.456    
     18700   297.79164      0.00935        0.0077335723   0.011238355    8.1443259     -41469.353      216.59781      88.467929      89.101819      275.14451      2168868.8      17.575819      51626.672    
     18800   301.78415      0.0094         0.0058472506  -0.0094491671   8.27269       -41469.524      219.50175      88.480464      89.026234      275.15814      2167443.4      17.562055      51588.796    
     18900   302.56036      0.00945       -0.0048696235  -0.0065852274   8.2609313     -41471.63       220.06632      88.318724      88.965726      275.17177      2162118        17.551357      51559.924    
     19000   297.23481      0.0095         0.010249384    0.0054717265   8.3116775     -41474.532      216.1928       88.324997      88.869898      275.1854       2160049.5      17.578443      51642.053    
     19100   297.15035      0.00955       -0.0065502769  -0.0031755701   8.3820866     -41475.194      216.13136      88.16742       88.838789      275.19903      2155547.8      17.470134      51326.405    
     19200   302.4652       0.0096        -0.012611557    0.0022125938   8.519072      -41475.001      219.9971       88.093985      88.750085      275.21266      2151708.5      17.375388      51050.573    
     19300   303.18123      0.00965        0.015133257    0.0083356913   8.5441633     -41472.432      220.51791      88.074025      88.572549      275.22629      2147024        17.398343      51120.55     
     19400   303.90169      0.0097         0.0010290355  -0.01610053     8.5650572     -41473.115      221.04193      88.064306      88.573877      275.23992      2146925.6      17.371604      51044.51     
     19500   298.10648      0.00975       -0.0011131373   0.0032863922   8.6822381     -41472.047      216.82681      87.871612      88.542094      275.25355      2141565.3      17.413099      51168.974    
     19600   296.00094      0.0098        -0.0031568376   0.0038529627   8.613304      -41474.814      215.29534      87.726696      88.493348      275.26718      2136962.2      17.426262      51210.19     
     19700   294.25425      0.00985        0.0025633089   0.0069755969   8.7085216     -41479.517      214.0249       87.647721      88.509497      275.28081      2135533.7      17.468491      51336.83     
     19800   293.25583      0.0099        -0.013886505   -0.0090575243   8.6662252     -41475.138      213.2987       87.490412      88.471584      275.29444      2130893.3      17.478649      51369.225    
     19900   293.4534       0.00995        0.01123036     0.014613934    8.8041389     -41470.801      213.4424       87.447802      88.361999      275.30807      2127322.7      17.464607      51330.497    
     20000   300.56893      0.01           0.00041309889 -0.0075855816   8.7528728     -41472.015      218.61786      87.292249      88.354238      275.3217       2123457.2      17.536426      51544.133    
     20100   303.02335      0.01005       -0.0010258008  -0.0068536414   8.783638      -41471.287      220.40308      87.262847      88.270909      275.33533      2120845        17.623002      51801.167    
     20200   302.18969      0.0101         0.005952481    0.0051129798   8.848744      -41470.56       219.79672      87.202008      88.105672      275.34896      2115503.7      17.564212      51630.915    
     20300   297.94511      0.01015        0.00052230514 -0.0075254211   8.8882873     -41472.602      216.70943      87.163192      88.053861      275.36259      2113423.2      17.528978      51529.895    
     20400   296.39766      0.0102         0.0037943564  -0.0035787034   8.9896049     -41474.155      215.5839       86.998832      88.039636      275.37622      2109201.6      17.547873      51587.994    
     20500   302.61694      0.01025       -0.010672319    0.012462486    8.9995268     -41475.582      220.10747      86.901102      87.949533      275.38986      2104780.2      17.477983      51385.071    
     20600   298.71315      0.0103        -0.002124192    0.0023572202   9.1000348     -41470.439      217.26807      86.980461      87.818997      275.40349      2103679.7      17.409871      51187.355    
     20700   300.75391      0.01035        0.0023770998  -0.0036048443   9.140992      -41471.023      218.7524       86.86512       87.699626      275.41712      2098138.2      17.392697      51139.392    
     20800   297.84836      0.0104         0.0087446088  -0.0036134444   9.2074808     -41469.394      216.63906      86.901017      87.57662       275.43075      2096165        17.33654       50976.799    
     20900   300.12643      0.01045        0.00071360589 -0.0016760319   9.2709308     -41471.856      218.29601      86.730355      87.50981       275.44438      2090555.9      17.385006      51121.839    
     21000   295.66875      0.0105        -0.0052881972  -0.004158707    9.2447325     -41470.558      215.05373      86.625144      87.484649      275.45801      2087522.8      17.426872      51247.484    
     21100   296.27482      0.01055        0.0032597321   0.013842934    9.303535      -41470.412      215.49455      86.629087      87.390201      275.47164      2085467.2      17.490687      51437.691    
     21200   303.57888      0.0106        -0.009204515   -0.00068150688  9.290059      -41471.293      220.80714      86.563387      87.235731      275.48527      2080305.1      17.508462      51492.515    
     21300   304.42129      0.01065        0.00043393035  0.0028533961   9.3707199     -41469.541      221.41986      86.541867      87.092666      275.4989       2076479.8      17.499325      51468.189    
     21400   302.4957       0.0107        -0.0086144049   0.0040161834   9.3393537     -41470.085      220.01929      86.473675      86.998231      275.51253      2072696.4      17.575998      51696.253    
     21500   295.30683      0.01075        0.0077959263  -0.0069390172   9.4331501     -41470.149      214.79049      86.481006      86.860484      275.52616      2069692.5      17.538315      51587.967    
     21600   297.06194      0.0108         0.011063782   -0.0065106919   9.4285979     -41471.448      216.06706      86.422509      86.710462      275.53979      2064822.4      17.539614      51594.342    
     21700   300.57428      0.01085       -0.0011449015  -0.0027684494   9.5632987     -41471.651      218.62175      86.331693      86.663335      275.55342      2061633.5      17.46867       51388.194    
     21800   296.5105       0.0109        -0.00012272333  0.0048434798   9.6149032     -41465.407      215.66598      86.171671      86.680434      275.56705      2058319.9      17.441536      51310.911    
     21900   302.62776      0.01095       -0.013708086    0.0057972386   9.6182462     -41468.866      220.11534      86.080156      86.651141      275.58068      2055540.8      17.424642      51263.747    
     22000   295.95505      0.011          0.0043671263   0.00065796938  9.7250547     -41466.938      215.26197      86.009405      86.519031      275.59431      2050821.4      17.349098      51044.021    
     22100   292.51707      0.01105        0.010749062   -0.0076059183   9.7339383     -41470.595      212.76136      85.928745      86.431912      275.60794      2046936.3      17.362945      51087.286    
     22200   297.20987      0.0111         0.0030546961  -0.0012215837   9.8189488     -41472.237      216.17466      85.761884      86.49775       275.62157      2044618.7      17.363332      51090.952    
     22300   300.70023      0.01115       -0.018657903    0.0096749176   9.8276675     -41471.146      218.71336      85.581298      86.444825      275.6352       2039165.9      17.398966      51198.337    
     22400   298.3213       0.0112         0.011282256    0.0042319579   9.9145964     -41466.296      216.98305      85.636441      86.319739      275.64883      2037628        17.387131      51166.04     
     22500   300.47417      0.01125        0.0018661991  -0.01268409     9.8878059     -41465.631      218.54894      85.542336      86.2168        275.66246      2033062.1      17.436699      51314.444    
     22600   303.13998      0.0113         0.0020144459  -0.0029081987   9.9415888     -41468.379      220.4879       85.388007      86.168441      275.67609      2028356.2      17.417456      51260.349    
     22700   297.59545      0.01135        0.0054434698   0.0079586786   9.9699351     -41471.321      216.45511      85.277004      86.083335      275.68973      2023818.7      17.522923      51573.291    
     22800   299.32793      0.0114        -0.006326377   -0.014465706    9.9565904     -41472.233      217.71522      85.218906      85.990494      275.70336      2020358.5      17.523479      51577.479    
     22900   296.9044       0.01145        0.0024752444   0.01446068     10.034493     -41465.972      215.95247      85.103699      85.931456      275.71699      2016341.7      17.542486      51635.975    
     23000   299.84805      0.0115        -0.0043484698  -0.0011623733   10.029148     -41465.46       218.09353      85.11251       85.839246      275.73062      2014486.2      17.516245      51561.285    
     23100   299.92529      0.01155       -0.014997621   -0.0063483827   10.095423     -41465.483      218.14971      84.937952      85.772021      275.74425      2008879.5      17.507725      51538.753    
     23200   301.44435      0.0116         0.015657291    0.021748773    10.148301     -41468.391      219.2546       84.886307      85.617497      275.75788      2004140.2      17.461846      51406.235    
     23300   294.87953      0.01165        9.3361786e-05 -0.016218349    10.217498     -41469.653      214.47969      84.912645      85.598326      275.77151      2004412.2      17.418398      51280.863    
     23400   298.0585       0.0117        -0.0040470124  -0.006972871    10.264007     -41472.03       216.7919       84.685259      85.500753      275.78514      1996864.6      17.453619      51387.095    
     23500   296.83247      0.01175        0.0023143972   0.019822635    10.317782     -41467.24       215.90016      84.60175       85.472844      275.79877      1994342.9      17.364136      51126.166    
     23600   301.04619      0.0118        -0.0021233246  -0.0089904388   10.401143     -41467.851      218.96499      84.602133      85.35166       275.8124       1991622.7      17.306758      50959.744    
     23700   296.38476      0.01185        0.0018019147  -0.009041844    10.462987     -41462.907      215.57451      84.49189       85.236864      275.82603      1986450.4      17.288714      50909.13     
     23800   302.25055      0.0119         0.0054788705   0.011175704    10.529298     -41465.773      219.84098      84.426866      85.196878      275.83966      1984088.6      17.317308      50995.849    
     23900   298.99754      0.01195       -0.01343806    -0.0048014775   10.459503     -41464.741      217.47491      84.355969      85.086653      275.85329      1979955.5      17.426727      51320.599    
     24000   298.36895      0.012         -0.0011162232   0.00089241452  10.505571     -41467.451      217.01772      84.262322      84.93214       275.86692      1974263.5      17.495051      51524.355    
     24100   293.40123      0.01205        0.0098350179   0.0071697947   10.520078     -41463.949      213.40446      84.224455      84.825579      275.88055      1970997.8      17.502921      51550.082    
     24200   300.18773      0.0121        -0.0010802591  -0.0097512717   10.551621     -41464.461      218.3406       84.221843      84.760041      275.89418      1969511.1      17.553524      51701.672    
     24300   300.31414      0.01215        0.0043972994  -0.0027702224   10.593714     -41460.485      218.43254      84.050421      84.614694      275.90781      1962229        17.550655      51695.774    
     24400   307.36125      0.0122         0.01076983     0.0066272051   10.666627     -41465.786      223.55823      83.972463      84.688699      275.92144      1962220.5      17.461705      51436.314    
     24500   300.91731      0.01225       -0.017251669   -0.0075554772   10.701367     -41464.619      218.87126      83.887473      84.612658      275.93507      1958571.2      17.506349      51570.368    
     24600   301.90612      0.0123         0.0013592715   0.0042250538   10.76384      -41466.102      219.59046      83.76509       84.4246        275.9487       1951463.5      17.442645      51385.246    
     24700   297.45862      0.01235        0.0025366455   0.0088602987   10.866503     -41463.354      216.35559      83.714236      84.436154      275.96233      1950642        17.376637      51193.318    
     24800   300.62278      0.0124        -0.010915705   -0.0088832415   10.898092     -41466.719      218.65702      83.664853      84.209537      275.97597      1944355.1      17.367223      51168.109    
     24900   296.53942      0.01245        0.016849254   -0.0002134749   10.95363      -41462.4        215.68701      83.578456      84.094826      275.9896       1939797.2      17.368183      51173.466    
     25000   302.26398      0.0125         0.0023368352   0.0025315341   11.01626      -41461.48       219.85075      83.450709      84.17947       276.00323      1938877.5      17.334227      51075.941    
     25100   304.44271      0.01255       -0.010890341   -0.00105841     11.060253     -41461.827      221.43544      83.3704        84.005852      276.01686      1933112.1      17.349185      51122.54     
     25200   298.54468      0.0126         0.0021788046   0.0014448942   11.115323     -41462.404      217.14553      83.270068      83.943617      276.03049      1929450.5      17.279737      50920.412    
     25300   296.73784      0.01265       -0.0036293324   0.0047202409   11.140357     -41464.063      215.83133      83.258928      83.831857      276.04412      1926719.1      17.340606      51102.305    
     25400   298.31022      0.0127         0.0041495138  -0.010947802    11.142163     -41464.336      216.97499      83.139578      83.749621      276.05775      1922164.7      17.356569      51151.876    
     25500   302.01356      0.01275        0.0092121951  -0.006944233    11.135649     -41463.855      219.66861      83.064582      83.643446      276.07138      1918090.9      17.425931      51358.83     
     25600   303.46732      0.0128        -0.0016408527   0.0043846013   11.132307     -41462.167      220.726        82.928206      83.637816      276.08501      1914907.4      17.521786      51643.887    
     25700   299.65934      0.01285       -0.00028507508  0.0020277352   11.170137     -41461.02       217.95627      82.764786      83.575832      276.09864      1909811.8      17.52931       51668.616    
     25800   295.74222      0.0129        -0.0045677373   0.0024573406   11.233056     -41463.698      215.10717      82.784742      83.411324      276.11227      1906606.3      17.521548      51648.287    
     25900   296.44602      0.01295        0.0072852317  -0.0085387869   11.201793     -41464.524      215.61907      82.6073        83.387156      276.1259       1902062.3      17.563331      51774.007    
     26000   299.538        0.013         -0.011978521    0.020254732    11.318887     -41462.177      217.86802      82.561124      83.322399      276.13953      1899616.6      17.492266      51567.062    
     26100   305.32712      0.01305       -0.0035809676  -0.0086862473   11.285897     -41463.014      222.07871      82.623569      83.087357      276.15316      1895784.3      17.545059      51725.251    
     26200   298.97897      0.0131         0.006668427    0.0036265145   11.362527     -41459.186      217.46141      82.514722      83.005516      276.16679      1891515.2      17.570813      51803.733    
     26300   298.61923      0.01315        0.007674868   -0.0040298166   11.417961     -41461.162      217.19975      82.48925       82.882137      276.18042      1888213.9      17.474563      51522.502    
     26400   293.95155      0.0132        -0.00040401647 -0.016289996    11.47843      -41459.844      213.80473      82.269348      82.87403       276.19405      1883089        17.448932      51449.471    
     26500   298.43679      0.01325       -0.0096153534   0.01971265     11.572616     -41460.525      217.06705      82.157368      82.775968      276.20768      1878393.3      17.401596      51312.43     
     26600   306.68247      0.0133         0.00066021463 -0.0012815874   11.670246     -41460.812      223.06452      82.123437      82.713219      276.22131      1876286.8      17.308276      51039.775    
     26700   304.36851      0.01335        0.0066241605  -0.010370381    11.685429     -41459.686      221.38147      82.011406      82.620588      276.23494      1871721.2      17.389413      51281.567    
     26800   300.99468      0.0134         0.0014480911   0.0029148025   11.646867     -41461.76       218.92753      81.80106       82.644344      276.24857      1867549.5      17.433959      51415.469    
     26900   295.59373      0.01345       -0.0017724275   0.0056351634   11.735365     -41460.1        214.99917      81.667273      82.657914      276.2622       1864893.2      17.437271      51427.774    
     27000   295.38104      0.0135        -0.009739668    0.0013125077   11.655986     -41459.456      214.84447      81.525889      82.586496      276.27584      1860147.9      17.50674       51635.207    
     27100   300.52532      0.01355        0.00046349929  0.011373932    11.791215     -41461.106      218.58614      81.48015       82.389455      276.28947      1854760.2      17.50373       51628.878    
     27200   299.56884      0.0136         0.006623587   -0.0051863226   11.73287      -41457.809      217.89045      81.516605      82.260874      276.3031       1852785.6      17.525947      51696.959    
     27300   307.34635      0.01365       -0.0051193     -0.016514722    11.757695     -41457.592      223.54739      81.433679      82.143743      276.31673      1848356.4      17.625906      51994.377    
     27400   307.48541      0.0137         0.010900391    0.0078436856   11.869992     -41453.842      223.64854      81.359422      82.028546      276.33036      1844172.2      17.558918      51799.324    
     27500   302.29049      0.01375       -0.003933507    0.0026566034   11.924465     -41455.449      219.87003      81.347643      81.922392      276.34399      1841609.8      17.488365      51593.737    
     27600   297.11473      0.0138        -0.0080613274  -0.0033031888   11.999543     -41455.612      216.10546      81.235661      81.774032      276.35762      1835834.7      17.453129      51492.324    
     27700   299.50689      0.01385       -0.0059068879   0.017764803    12.084981     -41460.282      217.84539      81.201869      81.560072      276.37125      1830359.9      17.366787      51240.113    
     27800   293.98175      0.0139         0.0083654095  -0.013911478    12.189119     -41457.113      213.82669      81.226954      81.467643      276.38488      1828940.6      17.31345       51085.264    
     27900   298.93678      0.01395        0.0043080789  -0.0046129888   12.200447     -41456.507      217.43072      81.106124      81.366856      276.39851      1824050.6      17.361097      51228.378    
     28000   306.25022      0.014         -0.0088965677   0.01323567     12.254184     -41457.52       222.75013      81.006246      81.281583      276.41214      1819984.9      17.328101      51133.536    
     28100   302.68516      0.01405        0.0077195976  -0.0038024755   12.285408     -41456.313      220.15709      81.055742      81.125794      276.42577      1817696.1      17.337556      51163.959    
     28200   304.26593      0.0141        -0.0016756123  -0.014060405    12.270916     -41459.617      221.30686      80.945896      81.020751      276.4394       1812971.8      17.417178      51401.463    
     28300   302.79119      0.01415        0.0068730365   0.010384892    12.31194      -41460.409      220.23422      80.76618       80.953028      276.45303      1807523.7      17.43544       51457.896    
     28400   296.28218      0.0142        -0.0014570941  -0.0071773254   12.316509     -41457.198      215.49991      80.753159      80.936972      276.46666      1806962.9      17.453859      51514.796    
     28500   294.93447      0.01425       -0.0055333795  -0.0102902      12.364675     -41457.072      214.51965      80.569523      80.824537      276.48029      1800438.1      17.487023      51615.223    
     28600   297.01366      0.0143         0.011300561    0.016869218    12.427307     -41455.516      216.03195      80.450843      80.741774      276.49392      1796033.7      17.436839      51469.636    
     28700   304.23477      0.01435       -0.0048521097  -0.0033962663   12.379808     -41456.38       221.2842       80.326961      80.751929      276.50755      1793582        17.539583      51775.466    
     28800   310.39689      0.0144        -0.0045104707  -0.0066918937   12.457212     -41459.834      225.76619      80.057205      80.75335       276.52118      1787678.4      17.555685      51825.554    
     28900   299.46534      0.01445        0.0033503792   0.014462799    12.510025     -41456.552      217.81517      79.875162      80.736331      276.53481      1783325.3      17.483568      51615.202    
     29000   298.19627      0.0145        -0.0070937222  -0.0029001874   12.565419     -41458.216      216.89211      79.84205       80.706276      276.54844      1782010.3      17.539571      51783.087    
     29100   296.06787      0.01455       -0.0032936414  -0.00071683245  12.652134     -41454.9        215.34403      79.616763      80.618749      276.56207      1775142.4      17.425623      51449.208    
     29200   300.12989      0.0146         0.0084244205   0.0031477099   12.776967     -41455.017      218.29852      79.580407      80.56581       276.57571      1773254.1      17.350025      51228.528    
     29300   299.23265      0.01465        0.002295281   -0.011500247    12.837277     -41452.737      217.64592      79.413664      80.535408      276.58934      1768958        17.293918      51065.382    
     29400   303.15626      0.0147        -0.0062854352   0.00445487     12.87233      -41457.259      220.49975      79.212523      80.536829      276.60297      1764595.7      17.267157      50988.876    
     29500   296.86681      0.01475        0.0020194417   0.015567294    12.956904     -41459.428      215.92514      79.215004      80.394161      276.6166       1761611.7      17.290923      51061.57     
     29600   296.30737      0.0148        -0.0074995373  -0.015609042    12.892873     -41457.852      215.51823      79.189851      80.208046      276.63023      1757062        17.344227      51221.506    
     29700   302.30637      0.01485        0.010205987    0.0023562516   12.930647     -41457.355      219.88158      79.053509      80.162447      276.64386      1753126.1      17.41509       51433.315    
     29800   302.34304      0.0149         0.00012427163  0.00298584     12.880646     -41454.563      219.90825      79.027635      79.99634       276.65749      1749006.9      17.4944        51670.094    
     29900   301.72248      0.01495       -0.0071928914  -0.011009359    12.974132     -41454.075      219.45689      79.03807       79.846703      276.67112      1746051.9      17.456926      51561.953    
     30000   301.46677      0.015          0.0057587473   0.012397256    13.036037     -41455.616      219.2709       78.885797      79.673009      276.68475      1738982.7      17.450663      51545.992    
     30100   292.27315      0.01505       -0.0016826704   0.0026340987   12.978249     -41455.26       212.58395      78.937814      79.579099      276.69838      1738163.9      17.513607      51734.466    
     30200   295.65141      0.0151        -0.0071568687  -0.0084782068   13.091436     -41458.392      215.04112      78.893041      79.383702      276.71201      1732998        17.47208       51614.339    
     30300   297.45497      0.01515        0.005265931    0.0049883139   13.08709      -41455.202      216.35293      78.815747      79.221453      276.72564      1727846.7      17.486623      51659.845    
     30400   300.50448      0.0152         0.00098202865  0.00097582703  13.203698     -41454.994      218.57098      78.909412      79.093676      276.73927      1727195        17.419086      51462.859    
     30500   294.99965      0.01525        0.00092808427 -0.0059009852   13.236598     -41449.934      214.56706      78.743529      78.981346      276.7529       1721201        17.399278      51406.872    
     30600   294.16074      0.0153         0.0021003091   0.004658266    13.336535     -41448.27       213.95688      78.638867      78.897188      276.76653      1717166.3      17.318876      51171.84     
     30700   301.95488      0.01535       -0.00012758925  0.0047964152   13.419508     -41451.505      219.62593      78.638614      78.770092      276.78016      1714479        17.323238      51187.249    
     30800   301.9858       0.0154        -0.011837118   -0.019498395    13.390725     -41448.85       219.64842      78.4936        78.631102      276.79379      1708381.9      17.310917      51153.364    
     30900   303.88351      0.01545        0.015594658    0.021292095    13.532661     -41451.218      221.02871      78.376517      78.600582      276.80742      1705255.5      17.2906        51095.843    
     31000   300.08725      0.0155        -0.0025730547  -0.014127611    13.552968     -41454.14       218.26751      78.272836      78.541029      276.82105      1701793.2      17.222878      50898.22     
     31100   297.32402      0.01555       -0.00074492921  0.0014094662   13.587081     -41453.893      216.25768      78.06617       78.575858      276.83468      1698136.2      17.257488      51003.014    
     31200   294.42417      0.0156         0.0020910498   0.0074987594   13.52876      -41450.739      214.14849      77.91517       78.464149      276.84831      1692525.3      17.369016      51335.154    
     31300   302.3877       0.01565       -0.012176734   -0.011862302    13.428169     -41451.578      219.94074      77.835502      78.473292      276.86195      1691075        17.519999      51783.941    
     31400   303.98146      0.0157         0.0034842873   0.0060344784   13.531806     -41449.767      221.09995      77.561         78.400185      276.87558      1683624.1      17.511983      51762.798    
     31500   299.8289       0.01575        0.006029577    0.0062415975   13.509296     -41446.762      218.0796       77.427962      78.387482      276.88921      1680546.6      17.495979      51718.037    
     31600   303.16765      0.0158        -0.0077786272  -0.0057552145   13.544866     -41450.614      220.50803      77.330957      78.423613      276.90284      1679297.5      17.566614      51929.39     
     31700   300.27915      0.01585        0.0057019315   0.0044762656   13.645283     -41451.967      218.40709      77.117423      78.284873      276.91647      1671780.1      17.528551      51819.424    
     31800   295.53247      0.0159         0.0041519208   0.0020527423   13.69392      -41450.566      214.9546       77.086708      78.2414        276.9301       1670268.4      17.451003      51592.707    
     31900   295.44683      0.01595       -0.011976498   -0.0096057367   13.757867     -41450.754      214.89232      77.005351      78.14995       276.94373      1666637.5      17.492994      51719.396    
     32000   299.24596      0.016          0.010726796    0.0042380737   13.747447     -41448.987      217.6556       76.811854      77.970098      276.95736      1658705.3      17.497756      51736.022    
     32100   303.98675      0.01605        0.0021783954   0.0081047203   13.903392     -41447.591      221.1038       76.805797      77.980389      276.97099      1658875.1      17.402843      51457.922    
     32200   303.16205      0.0161        -0.0095672957  -0.0032523385   13.935079     -41447.795      220.50396      76.7447        77.739648      276.98462      1652519.6      17.414046      51493.584    
     32300   297.58177      0.01615        0.0050569946  -0.0016787147   13.948087     -41447.545      216.44516      76.748153      77.5715        276.99825      1649100.6      17.414087      51496.24     
     32400   302.38459      0.0162         0.005442284    0.0009344611   14.089334     -41453.321      219.93847      76.634923      77.520816      277.01188      1645672.7      17.338976      51276.647    
     32500   299.23991      0.01625       -0.0023955156  -0.004563432    14.073261     -41451.249      217.6512       76.576927      77.368086      277.02551      1641268.2      17.331303      51256.478    
     32600   301.62367      0.0163         0.0047986841  -0.0030832196   14.06271      -41448.389      219.38503      76.5003        77.275286      277.03914      1637739.7      17.414103      51503.889    
     32700   305.65925      0.01635        0.0076998115   0.0030541172   14.051519     -41446.039      222.32029      76.435892      77.224471      277.05277      1635365.3      17.507323      51782.142    
     32800   305.28568      0.0164        -0.01672131    -0.0035499624   14.040544     -41448.295      222.04857      76.312787      77.045496      277.0664       1629027.6      17.513265      51802.267    
     32900   299.13747      0.01645        0.0069428072   0.011853373    14.150985     -41448.449      217.57669      76.189795      76.958481      277.08003      1624645.1      17.46974       51676.066    
     33000   299.73198      0.0165        -0.0072493919   0.00034046337  14.188446     -41449.096      218.0091       76.193629      76.814234      277.09366      1621761.4      17.458056      51644.044    
     33100   297.9201       0.01655       -0.00016225826 -0.011238829    14.204515     -41445.093      216.69124      76.071831      76.696978      277.10729      1616776.8      17.482604      51719.208    
     33200   303.01147      0.0166         0.0057772107   0.025510164    14.224051     -41445.554      220.39444      75.992103      76.635614      277.12092      1613869.5      17.4952        51759.015    
     33300   303.89151      0.01665       -0.00576164    -0.016486458    14.323031     -41443.776      221.03453      76.004398      76.501572      277.13455      1611386.6      17.452085      51634.002    
     33400   299.50393      0.0167         0.00050280888 -0.001539928    14.375491     -41443.961      217.84323      75.828202      76.36121       277.14818      1604780.4      17.414268      51524.65     
     33500   294.34574      0.01675        0.013539472    4.0377285e-05  14.466423     -41444.277      214.09144      75.828421      76.22677       277.16182      1602038.4      17.391982      51461.24     
     33600   298.02469      0.0168        -0.0053393867  -0.0050553361   14.518722     -41447.151      216.76732      75.64725       76.210555      277.17545      1597949.4      17.342672      51317.861    
     33700   300.83068      0.01685       -0.0016511475   0.0042900818   14.666472     -41447.688      218.80824      75.500719      76.108718      277.18908      1592801.3      17.229628      50985.865    
     33800   298.30891      0.0169        -0.0014129739   0.0047204478   14.718112     -41439.741      216.97404      75.465822      76.048091      277.20271      1590875.1      17.219906      50959.603    
     33900   307.54877      0.01695        0.0026185924  -0.011358       14.712353     -41444.716      223.69463      75.352999      75.925601      277.21634      1586016.1      17.333573      51298.502    
[...]
    785400   302.93728      0.3927         0.010193392   -0.0086780011  -0.058525586   -41147.043      220.34047      19.459119      19.582886      379.64926      144671.31      20.055362      81285.627    
    785500   301.98331      0.39275       -0.013559075   -0.00022713585 -0.062824539   -41148.247      219.64661      19.44959       19.591364      379.66289      144668.27      19.813551      80308.432    
    785600   298.20058      0.3928         0.0055770968   0.00034569129 -0.0037207725  -41147.914      216.89525      19.475922      19.568012      379.67652      144696.65      19.991234      81031.531    
    785700   299.76867      0.39285       -0.00070624609  0.0021895384  -0.091940792   -41148.247      218.03579      19.487121      19.577227      379.69015      144853.23      19.808993      80295.723    
    785800   299.05904      0.3929         0.0030768609  -0.00053264379 -0.11658837    -41146.836      217.51964      19.534145      19.543459      379.70378      144957.52      19.990312      81033.611    
    785900   298.2112       0.39295       -0.0093193369  -0.0028991743  -0.19213151    -41145.389      216.90298      19.531006      19.535763      379.71741      144882.36      19.909065      80707.16     
    786000   302.79066      0.393          0.0093263129  -0.00073005862 -0.22746087    -41147.215      220.23382      19.565676      19.488579      379.73104      144794.19      19.952168      80884.796    
    786100   300.60094      0.39305        0.0012423641   0.0034441829  -0.26073446    -41144.044      218.64114      19.553923      19.534165      379.74467      145050.91      19.857628      80504.424    
    786200   302.52772      0.3931        -0.0010605887  -0.0035688842  -0.31398689    -41146.388      220.04258      19.548519      19.530059      379.7583       144985.54      20.011848      81132.557    
    786300   300.28327      0.39315       -0.0028989146   0.0013631181  -0.24074874    -41149.618      218.41008      19.482541      19.569056      379.77193      144789.92      20.085073      81432.35     
    786400   297.1983       0.3932         0.0026507388  -0.00039513204 -0.17721725    -41149.187      216.16624      19.449565      19.559562      379.78556      144479.91      19.808962      80315.778    
    786500   297.79676      0.39325       -0.00036416997  0.0069851381  -0.15745988    -41147.715      216.60153      19.359565      19.645864      379.79919      144451.07      19.924122      80785.596    
    786600   302.16531      0.3933         0.00084928509 -0.0064082488  -0.17071725    -41144.603      219.77898      19.341857      19.669353      379.81282      144496.68      19.879615      80608.028    
    786700   302.32748      0.39335       -0.0051636839  -0.00275251    -0.19811605    -41145.168      219.89694      19.2963        19.703206      379.82646      144409.63      19.896109      80677.804    
    786800   297.48753      0.3934         0.0077958031   0.0024698798  -0.095820375   -41144.762      216.37661      19.301755      19.674947      379.84009      144248.45      20.000896      81105.617    
    786900   298.96905      0.39345       -0.0057215889   0.0082400268  -0.058801796   -41148.199      217.45419      19.306543      19.680183      379.85372      144327.81      19.805622      80316.647    
    787000   293.13072      0.3935         0.0042381292  -0.012304636   -0.014994231   -41144.84       213.2077       19.31085       19.642778      379.86735      144090.8       19.921897      80791.068    
    787100   299.85344      0.39355       -0.0068262491   0.0076863207   0.0578317     -41147.875      218.09745      19.308684      19.620007      379.88098      143912.79      19.904224      80722.292    
    787200   302.60128      0.3936         0.0073695552  -0.0030812065   0.10995238    -41145.528      220.09608      19.342652      19.584579      379.89461      143910.8       19.728608      80012.945    
    787300   302.81315      0.39365       -0.0054283949   0.0066781366   0.12324825    -41145.046      220.25019      19.388315      19.581959      379.90824      144236.41      19.931718      80839.598    
    787400   299.375        0.3937         0.0050248126  -0.014667694    0.12036786    -41146.598      217.74946      19.436081      19.537051      379.92187      144265.34      19.750221      80106.349    
    787500   297.58664      0.39375       -0.0064628214   0.011820864    0.15097597    -41149.161      216.4487       19.412606      19.548285      379.9355       144179.13      19.883634      80650.363    
    787600   295.51868      0.3938         0.0099901678  -0.0050302194   0.20490601    -41147.543      214.94457      19.426586      19.528935      379.94913      144145.3       20.079081      81446.04     
    787700   295.30534      0.39385       -0.0062600974   0.0067997787   0.18559619    -41145.503      214.7894       19.400323      19.561376      379.96276      144194.74      19.83597       80462.807    
    787800   301.42433      0.3939         0.00069466436 -0.0068370228   0.10289959    -41148.351      219.24003      19.421564      19.570892      379.97639      144428.01      19.925027      80826.959    
    787900   300.00149      0.39395       -0.0057606673  -9.6678852e-05  0.020689319   -41146.398      218.20513      19.422047      19.597507      379.99002      144633.21      19.642931      79685.479    
    788000   301.18323      0.394          0.012956746    0.0046851524   0.011427404   -41147.64       219.06467      19.448851      19.600527      380.00365      144860.33      19.677431      79828.296    
    788100   298.5646       0.39405       -0.0018560354  -0.00051263815  0.011831102   -41148.051      217.16002      19.444828      19.644568      380.01728      145160.99      19.757538      80156.152    
    788200   295.14352      0.3941        -0.0045876629  -0.0055629495   0.091176442   -41148.972      214.6717       19.422933      19.646412      380.03091      145016.35      19.732231      80056.354    
    788300   295.4056       0.39415       -0.0030118703   0.0016735734   0.095511778   -41148.481      214.86233      19.369125      19.658733      380.04454      144710.49      19.906314      80765.531    
    788400   302.67184      0.3942         0.0068401116   0.0072711656   0.15988709    -41147.71       220.1474       19.35989       19.67767       380.05817      144786.02      19.785554      80278.451    
    788500   299.99341      0.39425        0.0010920026  -0.0042124284   0.18956894    -41144.577      218.19926      19.380711      19.689622      380.0718       145034.97      19.851186      80547.639    
    788600   299.05209      0.3943        -0.0094109135  -0.0036578067   0.2493502     -41144.722      217.51459      19.361453      19.690824      380.08543      144904.9       19.813562      80397.86     
    788700   298.2745       0.39435        0.0037895345   0.0033700373   0.25467931    -41147.629      216.94901      19.364755      19.65731       380.09906      144688.13      20.011304      81203.152    
    788800   293.89689      0.3944         0.00096934983  0.0036078366   0.24392979    -41149.722      213.76497      19.359476      19.631084      380.1127       144460.88      20.058936      81399.355    
    788900   296.82335      0.39445        0.0064632871  -0.003529726    0.23157501    -41150.843      215.89353      19.362051      19.614866      380.12633      144365.91      19.694785      79924.492    
    789000   299.11401      0.3945        -0.013513876    0.00078156721  0.21454658    -41149.975      217.55963      19.344078      19.598954      380.13996      144120.07      19.930257      80882.974    
    789100   303.27415      0.39455        0.0095656833  -0.0032566922   0.23337868    -41150.434      220.5855       19.371491      19.565482      380.15359      144082.98      19.733819      80088.644    
    789200   300.92727      0.3946        -0.00096438605  0.009753287    0.19484615    -41147.033      218.8785       19.387168      19.565976      380.16722      144208.4       19.714136      80011.63     
    789300   302.78425      0.39465        0.0044640321  -0.012130895    0.15675374    -41145.082      220.22916      19.423918      19.550995      380.18085      144376.31      19.673652      79850.184    
    789400   305.4187       0.3947        -0.0084377084   0.0056422586   0.15289519    -41143.371      222.14532      19.430082      19.527654      380.19448      144254.88      19.628082      79668.084    
    789500   306.64578      0.39475        0.0057518356  -0.0028440654  -0.0035122188  -41147.737      223.03784      19.418011      19.533401      380.20811      144212.86      19.783481      80301.71     
    789600   296.72469      0.3948        -0.0044517972   0.010041214   -0.1015608     -41145.962      215.82176      19.442338      19.525235      380.22174      144338.34      19.938209      80932.657    
    789700   299.90324      0.39485        0.010462653   -0.01109859    -0.078347871   -41149.746      218.13367      19.449254      19.565927      380.23537      144695.79      19.794568      80352.474    
    789800   294.62792      0.3949        -0.016508808    0.0071814876  -0.067991123   -41145.461      214.29669      19.486483      19.56065       380.249        144938.86      19.972039      81075.791    
    789900   305.6878       0.39495        0.011584353   -0.0089143032  -0.07268246    -41148.86       222.34106      19.489864      19.566062      380.26263      145009.31      19.891564      80752        
    790000   303.605        0.395         -0.0036018952   0.0094359462  -0.15558105    -41145.102      220.82614      19.504582      19.576939      380.27626      145204.69      19.916007      80854.126    
    790100   303.20143      0.39505        0.0029272539  -0.0074639068  -0.19054169    -41147.816      220.5326       19.486855      19.607625      380.28989      145305.33      19.726592      80088.016    
    790200   296.91551      0.3951        -0.0076371651   0.0031443785  -0.14138422    -41149.491      215.96056      19.457597      19.637255      380.30352      145311.62      19.829848      80510.114    
    790300   296.94433      0.39515        0.0075018891   0.0031867871  -0.15208615    -41148.672      215.98152      19.444162      19.652617      380.31715      145330.09      19.931053      80923.911    
    790400   301.32676      0.3952        -0.00086008659  0.0028288649  -0.065028529   -41147.913      219.16906      19.432128      19.685742      380.33078      145490.17      20.048207      81402.495    
    790500   301.64464      0.39525       -0.0051117976  -0.0069317394  -0.026892859   -41145.534      219.40028      19.439922      19.662172      380.34441      145379.46      19.805414      80419.557    
    790600   304.83265      0.3953        -0.0030394611  -0.00080196236 -0.014559524   -41148.478      221.71906      19.434733      19.617833      380.35804      145018.1       20.009952      81252.992    
    790700   298.55213      0.39535        0.01271708     0.0068870739  -0.043577591   -41147.294      217.15095      19.459999      19.557092      380.37167      144762.23      19.688665      79951.228    
    790800   295.40597      0.3954        -0.0036505278   0.0012979667  -0.12011865    -41151.64       214.8626       19.499389      19.527651      380.3853       144842.08      19.660133      79838.227    
    790900   295.45608      0.39545       -0.0071869406  -0.0080210917  -0.10092417    -41149.637      214.89905      19.497669      19.480647      380.39893      144485.86      19.709407      80041.195    
    791000   298.41478      0.3955         0.0022491969   0.0052959759  -0.12231548    -41147.459      217.05105      19.4874        19.46271       380.41257      144281.97      19.79268       80382.25     
    791100   302.00776      0.39555        0.0064560801   0.00024519109 -0.18676091    -41148.111      219.66439      19.476299      19.44937       380.4262       144106.11      19.706932      80036.878    
    791200   298.29735      0.3956        -0.0042194283   0.0014769193  -0.17455926    -41144.586      216.96563      19.470464      19.438019      380.43983      143984.01      19.607788      79637.071    
    791300   305.00074      0.39565       -0.0046414565  -0.0094642928  -0.23839226    -41148.841      221.84132      19.414656      19.461446      380.45346      143749.5       19.746836      80204.689    
    791400   297.81592      0.3957         0.0036071316   0.0041955845  -0.22781988    -41146.529      216.61547      19.380084      19.463395      380.46709      143513.03      19.579832      79529.226    
    791500   295.66694      0.39575        0.0082734618   0.0059491609  -0.19905931    -41147.819      215.05241      19.35272       19.521643      380.48072      143744.43      19.819218      80504.45     
    791600   298.92744      0.3958        -0.0093094289  -0.0004984423  -0.19899926    -41148.271      217.42393      19.33783       19.591216      380.49435      144150.89      19.680077      79942.131    
    791700   300.12186      0.39585        0.00036773967 -0.010938392   -0.17360075    -41144.026      218.29269      19.309282      19.628084      380.50798      144214.13      19.735542      80170.303    
    791800   306.28761      0.3959        -0.0005187629   0.0087660047  -0.23749764    -41146.955      222.77732      19.270873      19.667361      380.52161      144220.44      19.703748      80044.019    
    791900   302.22854      0.39595        0.0067081783  -4.2727886e-05 -0.12170482    -41145.862      219.82497      19.285841      19.698963      380.53524      144569.56      19.810215      80479.41     
    792000   296.9066       0.396         -0.0076586148  -0.0013568105  -0.068123102   -41143.852      215.95408      19.306051      19.740309      380.54887      145029.99      19.656891      79859.387    
    792100   296.2588       0.39605       -0.0023419865  -0.007000981    0.041455162   -41144.573      215.4829       19.347989      19.711221      380.5625       145136.06      19.838859      80601.548    
    792200   295.01103      0.3961         0.0058552897   0.0092402278   0.16248889    -41144.179      214.57534      19.355172      19.732545      380.57613      145352.22      19.913525      80907.8      
    792300   306.16275      0.39615        0.0041210723   0.0031495934   0.097718118   -41149.83       222.68651      19.405892      19.712918      380.58976      145593.37      19.805709      80472.634    
    792400   303.82718      0.3962        -0.005925068   -0.0063710275   0.051832324   -41143.576      220.98774      19.422064      19.699663      380.60339      145621.95      19.794977      80431.907    
    792500   302.62837      0.39625       -0.0025417131  -0.0065077102   0.11089214    -41144.298      220.11579      19.443669      19.643164      380.61702      145371.03      19.739459      80209.195    
    792600   299.05091      0.3963         0.0077787139   0.013781799    0.16114833    -41147.479      217.51373      19.483708      19.593733      380.63065      145309.02      19.789133      80413.921    
    792700   299.77436      0.39635        0.0004102805  -0.0031334226   0.20338727    -41149.221      218.03993      19.545888      19.552612      380.64428      145472.03      19.734053      80192.972    
    792800   297.63497      0.3964        -0.0080351356  -0.00029297842  0.17112086    -41146.092      216.48385      19.554295      19.525991      380.65791      145341.66      19.754405      80278.551    
    792900   298.51095      0.39645        0.005015494   -0.0082435708   0.12632674    -41143.154      217.121        19.557714      19.469335      380.67154      144950.47      19.733479      80196.384    
    793000   305.10989      0.3965        -0.00072950044  0.012473096    0.11610126    -41144.72       221.92071      19.519432      19.466978      380.68517      144654.41      19.831523      80597.719    
    793100   304.87093      0.39655        0.0042544801  -0.0045418997   0.092922575   -41146.922      221.74691      19.535021      19.443217      380.6988       144598.4       19.727131      80176.325    
    793200   295.79543      0.3966        -0.0087529     -0.0022632733   0.083424418   -41146.775      215.14587      19.49767       19.451629      380.71244      144389.55      19.676549      79973.612    
    793300   301.03101      0.39665        0.0074115486  -0.0015927328   0.10746567    -41151.579      218.95395      19.4858        19.438006      380.72607      144205.74      19.794688      80456.657    
    793400   300.70981      0.3967        -0.0040240224   0.0096927818   0.072007871   -41149.164      218.72033      19.455943      19.464057      380.7397       144182.92      19.742364      80246.855    
    793500   301.57503      0.39675        0.0093166709  -0.010102527    0.16506251    -41145.148      219.34965      19.472694      19.460069      380.75333      144282.65      20.106653      81730.509    
    793600   298.34725      0.3968        -0.012670968    0.0039874686   0.14625695    -41142.636      217.00193      19.406944      19.508839      380.76696      144161.02      19.712648      80131.808    
    793700   299.08828      0.39685        0.010264404   -0.0071950871   0.20734992    -41146.774      217.54092      19.386333      19.523561      380.78059      144121.74      20.034099      81441.418    
    793800   298.00777      0.3969        -0.004422991    0.011599854    0.17488159    -41149.041      216.75501      19.366226      19.57253       380.79422      144338.54      19.669552      79962.346    
    793900   299.39994      0.39695        0.0032069058  -0.010777747    0.23829716    -41149.474      217.7676       19.361743      19.616171      380.80785      144632.07      19.672156      79975.795    
    794000   295.6591       0.397         -0.014389241    0.0039188105   0.205203      -41144.481      215.04671      19.335781      19.6419        380.82148      144632.75      19.840848      80664.488    
    794100   296.8029       0.39705        0.016264529   -0.0018619081   0.17511414    -41142.028      215.87865      19.325393      19.683886      380.83511      144869.24      19.716475      80161.709    
    794200   304.62178      0.3971        -0.0056131331   0.0082062541   0.11218411    -41146.959      221.56569      19.316152      19.717663      380.84874      145053.62      19.785494      80445.198    
    794300   297.21089      0.39715        0.001236084   -0.0090736821   0.11615877    -41147.324      216.1754       19.330584      19.732304      380.86237      145274.99      19.842359      80679.292    
    794400   296.99961      0.3972        -0.0055365275   0.0027448018   0.095795482   -41150.286      216.02172      19.347303      19.713848      380.876        145269.84      19.979678      81240.542    
    794500   300.2452       0.39725        0.0093266198   0.00012770029  0.09920161    -41150.352      218.38239      19.399598      19.678508      380.88963      145406.58      20.122962      81826.086    
    794600   299.80829      0.3973        -0.0017135283   0.0051156582   0.026423002   -41146.506      218.06461      19.451582      19.644117      380.90326      145546.62      19.710777      80152.884    
    794700   300.98446      0.39735       -0.0023321981  -0.0047834266   0.0059011512  -41146.246      218.92009      19.499385      19.583987      380.91689      145462.9       19.812088      80567.742    
    794800   300.73056      0.3974        -0.0055510001  -0.0012811128  -0.060913449   -41146.032      218.73542      19.523706      19.536367      380.93052      145295.39      19.702323      80124.24     
    794900   302.08061      0.39745        0.010880594    0.00065746243 -0.067421298   -41147.774      219.71738      19.551381      19.481834      380.94415      145100.39      19.832637      80657.079   