LAMMPS (4 May 2022)
  using 1 OpenMP thread(s) per MPI task
#uniaxial tensile test of CNT_16_14_2.036

##---------------INITIALIZATION-------------------------------

units          metal
dimension 	    3
boundary       p p p
atom_style 	atomic
newton 		on


##---------------ATOM DEFINITION------------------------------

read_data 	CNT_16_14_2.036.dat
Reading data file ...
  orthogonal box = (-50 -50 -0.109085) to (50 50 331.703)
  4 by 4 by 11 MPI processor grid
  reading atoms ...
  8112 atoms
  read_data CPU = 0.063 seconds



##---------------FORCE FIELDS---------------------------------
#Set the formula(s) LAMMPS uses to compute pairwise interactions. In LAMMPS, pair potentials are defined between pairs #of atoms that are within a cutoff distance and the set of active interactions typically changes over time

pair_style 	airebo 3.0

#Specify the pairwise force field coefficients for one or more pairs of atom types. The number and meaning of the coefficients depends on the pair style.

pair_coeff     * * /ascldap/users/bcma/CH.airebo C
Reading airebo potential file /ascldap/users/bcma/CH.airebo with DATE: 2011-10-25


##---------------SETTINGS-------------------------------------

timestep 	0.0005
variable   ts equal 0.0005


##---------------COMPUTES-----stresses in 3 directions and min/max on x and z atom coordinates --------------------------

compute    1 all stress/atom NULL
compute    2 all reduce sum c_1[1] c_1[2] c_1[3]
compute    3 all property/atom x y # true atoms position
compute    4 all reduce min c_3[1] c_3[2]
compute    5 all reduce max c_3[1] c_3[2]


variable   Lx equal lx
variable   Ly equal ly
variable   Lz equal lz
variable   Vol equal vol
variable   thickn equal 3.4
#making the damp parameter timestep dependent
fix		1 all npt temp 300 300 0.05 iso 0 0 0.05 #$(100.0*dt)x 0 0 0.5 y 0 0 0.5 z 0 0 0.5
thermo 	2000
##---------------RELAXATION--------------------------------------

run            50000
Neighbor list info ...
  update every 1 steps, delay 10 steps, check yes
  max neighbors/atom: 2000, page size: 100000
  master list distance cutoff = 12.2
  ghost atom cutoff = 12.2
  binsize = 6.1, bins = 17 17 55
  1 neighbor lists, perpetual/occasional/extra = 1 0 0
  (1) pair airebo, perpetual
      attributes: full, newton on, ghost
      pair build: full/bin/ghost
      stencil: full/ghost/bin/3d
      bin: standard
Per MPI rank memory allocation (min/avg/max) = 3.755 | 3.798 | 3.926 Mbytes
   Step          Temp          E_pair         E_mol          TotEng         Press          Volume    
         0   0             -60034.946      0             -60034.946     -2445.4062      3318120.8    
      2000   1.8329495     -60141.634      0             -60139.713     -13.942073      3147097.1    
      4000   164.04695     -59832.747      0             -59660.756      56.300697      2966679.6    
      6000   322.29392     -59803.517      0             -59465.615     -23.496952      3138175.2    
      8000   294.24266     -59858.232      0             -59549.739      1.8443124      3274264.5    
     10000   284.21536     -59850.051      0             -59552.072      11.1457        3266713.4    
     12000   299.49796     -59819.888      0             -59505.886      4.9488899      3138982.1    
     14000   305.07253     -59849.424      0             -59529.577     -11.416876      3186784.6    
     16000   295.21539     -59856.121      0             -59546.609     -11.790888      3203972.6    
     18000   309.39138     -59831.312      0             -59506.937     -3.6326255      3158786.7    
     20000   302.18322     -59848.452      0             -59531.635     -23.790371      3201291.6    
     22000   296.29786     -59848.247      0             -59537.6       -23.131632      3194890.5    
     24000   294.58504     -59828.375      0             -59519.524      18.962452      3157820.1    
     26000   296.56363     -59845.523      0             -59534.597     -3.6846017      3194427.7    
     28000   296.77857     -59837.513      0             -59526.362      5.7559334      3193840.8    
     30000   299.91803     -59827.069      0             -59512.626      5.729309       3164650.3    
     32000   299.6165      -59836.959      0             -59522.833      5.3661901      3176817.4    
     34000   297.50938     -59848.037      0             -59536.119     -13.077071      3193722.7    
     36000   297.54717     -59839.576      0             -59527.619     -56.572099      3172587.8    
     38000   298.40697     -59840.192      0             -59527.333     -1.7425772      3158825.7    
     40000   302.10393     -59842.314      0             -59525.579     -15.5798        3191854.3    
     42000   304.43222     -59844.44       0             -59525.265      24.509042      3199983.8    
     44000   294.73034     -59832.578      0             -59523.574      13.829603      3175274.9    
     46000   298.83902     -59844.496      0             -59531.185      17.019133      3177373.8    
     48000   306.15976     -59848.822      0             -59527.835      20.576507      3180526.8    
     50000   303.70428     -59834.311      0             -59515.899     -10.995339      3173080      
Loop time of 156.418 on 176 procs for 50000 steps with 8112 atoms

Performance: 13.809 ns/day, 1.738 hours/ns, 319.656 timesteps/s
99.9% CPU use with 176 MPI tasks x 1 OpenMP threads

MPI task timing breakdown:
Section |  min time  |  avg time  |  max time  |%varavg| %total
---------------------------------------------------------------
Pair    | 0.033742   | 33.36      | 136.8      | 999.3 | 21.33
Neigh   | 0.0007331  | 0.39961    | 1.703      | 109.3 |  0.26
Comm    | 0.084035   | 3.3949     | 18.435     | 312.1 |  2.17
Output  | 0.0033287  | 0.0035159  | 0.0039015  |   0.2 |  0.00
Modify  | 5.8629     | 118.04     | 155.11     | 589.3 | 75.46
Other   |            | 1.224      |            |       |  0.78

Nlocal:        46.0909 ave         189 max           0 min
Histogram: 132 0 0 0 0 0 0 0 0 44
Nghost:        289.591 ave        1163 max           0 min
Histogram: 132 0 0 0 0 0 0 0 0 44
Neighs:              0 ave           0 max           0 min
Histogram: 176 0 0 0 0 0 0 0 0 0
FullNghs:      8933.82 ave       36590 max           0 min
Histogram: 132 0 0 0 0 0 0 0 0 44

Total # of neighbors = 1572352
Ave neighs/atom = 193.83037
Neighbor list builds = 397
Dangerous builds = 1


##---------------DEFORMATION--------------------------------------
unfix              1
reset_timestep     0
fix		1 all npt temp 300 300 0.05 x 0 0 0.05 y 0 0 0.05 #$(100.0*dt)
fix        2 all ave/time 1 100 100 c_2[1] c_2[2] c_2[3]
fix        3 all ave/time 1 100 100 v_Lx v_Ly v_Lz v_Vol
fix        4 all  ave/time 1 100 100 c_4[1] c_4[2]
fix        5 all ave/time 1 100 100 c_5[1] c_5[2]
variable   srate equal 1.0e9
variable   srate1 equal "v_srate / 1.0e12"
fix		6 all deform 1 z erate ${srate1} units box remap x
fix		6 all deform 1 z erate 0.001 units box remap x
run            100
Per MPI rank memory allocation (min/avg/max) = 3.755 | 3.798 | 3.927 Mbytes
   Step          Temp          E_pair         E_mol          TotEng         Press          Volume    
         0   303.70428     -59834.311      0             -59515.899     -10.995339      3173080      
       100   301.85532     -59837.896      0             -59521.422      55.846903      3167122      
Loop time of 0.408017 on 176 procs for 100 steps with 8112 atoms

Performance: 10.588 ns/day, 2.267 hours/ns, 245.088 timesteps/s
99.7% CPU use with 176 MPI tasks x 1 OpenMP threads

MPI task timing breakdown:
Section |  min time  |  avg time  |  max time  |%varavg| %total
---------------------------------------------------------------
Pair    | 7.8506e-05 | 0.079978   | 0.331      |  48.9 | 19.60
Neigh   | 0          | 0          | 0          |   0.0 |  0.00
Comm    | 0.00012343 | 0.0066407  | 0.042571   |  14.1 |  1.63
Output  | 9.3498e-05 | 0.00010073 | 0.00011421 |   0.0 |  0.02
Modify  | 0.055241   | 0.319      | 0.40552    |  26.5 | 78.18
Other   |            | 0.002292   |            |       |  0.56

Nlocal:        46.0909 ave         190 max           0 min
Histogram: 132 0 0 0 0 0 0 0 0 44
Nghost:        289.591 ave        1166 max           0 min
Histogram: 132 0 0 0 0 0 0 0 0 44
Neighs:              0 ave           0 max           0 min
Histogram: 176 0 0 0 0 0 0 0 0 0
FullNghs:      8930.01 ave       36861 max           0 min
Histogram: 132 0 0 0 0 0 0 0 0 44

Total # of neighbors = 1571682
Ave neighs/atom = 193.74778
Neighbor list builds = 0
Dangerous builds = 0
##---------------THERMO-OUTPUTS--------------------------------------
variable cntdiameter equal ((f_5[1]-f_4[1])+(f_5[2]-f_4[2]))/2
#actual volume of cnt
variable   CorVol equal 3.14*v_cntdiameter*v_thickn*f_3[3]
#convertion factor of stress from barr to GPA
variable   ConvoFac equal 1/1.0e4
variable   sigmaxx equal f_2[1]*v_ConvoFac/v_CorVol
variable   sigmayy equal f_2[2]*v_ConvoFac/v_CorVol
variable   sigmazz equal f_2[3]*v_ConvoFac/v_CorVol
variable   StrainPerTs equal v_srate1*v_ts
variable   strain equal v_StrainPerTs*step
thermo 	100
thermo_style custom step temp v_strain v_sigmaxx v_sigmayy v_sigmazz pe ke lx ly lz vol v_cntdiameter v_CorVol
thermo_modify lost warn


##---------------DEFORMATION--------------------------------------
dump           1 all atom 5000 /ascldap/users/bcma/CNT_16_14_2.036/CNT_16_14_2.036.lammpstrj
run            1000000
Per MPI rank memory allocation (min/avg/max) = 4.755 | 4.798 | 4.927 Mbytes
   Step          Temp         v_strain      v_sigmaxx      v_sigmayy      v_sigmazz        PotEng         KinEng           Lx             Ly             Lz           Volume     v_cntdiameter     v_CorVol   
       100   301.85532      5e-05         -0.010150309   -0.0099773307  -0.79891374    -59837.896      316.47388      98.432611      98.41975       326.92153      3167122        20.917384      73004.31     
       200   301.17187      0.0001         0.011821015    0.011577749   -0.66768956    -59840.896      315.75734      98.358948      98.375692      326.93788      3163493.3      20.846363      72760.072    
       300   301.37162      0.00015       -0.002973297    0.0044741606  -0.64243732    -59842.208      315.96676      98.543694      98.325597      326.95422      3167979.6      20.897171      72941.055    
       400   297.81929      0.0002        -0.0087388363  -0.014619944   -0.61303952    -59841.145      312.24239      98.509374      98.229483      326.97057      3163938.8      20.913467      73001.585    
       500   302.96687      0.00025        0.01083076     0.0046244789  -0.54779563    -59848.771      317.63926      98.431907      98.138238      326.98691      3158672        20.939592      73096.433    
       600   299.9993       0.0003        -0.0046088359   0.009920584   -0.59697797    -59845.204      314.52798      98.49062       98.144722      327.00326      3160922.9      21.071746      73561.437    
       700   299.27928      0.00035        0.00052210509 -0.0064544997  -0.48864579    -59839.815      313.77309      98.54942       98.064235      327.01961      3160374.2      21.259589      74220.906    
       800   299.96525      0.0004        -0.0062118407   0.0024501589  -0.44992165    -59836.233      314.49228      98.502371      97.94085       327.03595      3155048.6      21.189054      73978.356    
       900   303.92191      0.00045        0.015215582    0.0048346218  -0.37798621    -59840.338      318.64056      98.590078      97.800676      327.0523       3153495.9      21.181914      73957.122    
      1000   303.57789      0.0005        -0.0088887699  -0.010186943   -0.3368028     -59846.202      318.27988      98.642668      97.818169      327.06864      3155900.1      21.159929      73884.055    
      1100   295.05315      0.00055       -0.0046317543  -0.0057590777  -0.25074953    -59841.241      309.34229      98.551651      97.677029      327.08499      3148596.1      21.243022      74177.898    
      1200   296.72389      0.0006         0.0054910794   0.011196222   -0.21811461    -59838.987      311.09394      98.590874      97.634674      327.10134      3148640.8      21.194069      74010.658    
      1300   301.35224      0.00065        0.00055209859  0.0034941814  -0.1944034     -59840.206      315.94643      98.593044      97.657714      327.11768      3149610.5      21.14361       73838.142    
      1400   303.65618      0.0007        -0.0012034104  -0.0067341705  -0.140112      -59842.719      318.36196      98.677817      97.532032      327.13403      3148419        21.089427      73652.603    
      1500   306.50607      0.00075       -0.007726941    0.0033692807  -0.12349877    -59849.837      321.34986      98.663982      97.438911      327.15037      3145129.2      21.026123      73435.192    
      1600   295.89929      0.0008         0.0079580914   0.00011267128 -0.060139637   -59845.014      310.22941      98.744119      97.355047      327.16672      3145131.7      21.090287      73662.97     
      1700   299.83656      0.00085       -7.8032363e-05  0.011110428    0.0039954178  -59845.977      314.35735      98.818808      97.215266      327.18307      3143148.5      20.936373      73129.04     
      1800   303.31882      0.0009        -0.00043049899 -0.018978378   -0.0032885187  -59844.898      318.00826      98.868212      97.108109      327.19941      3141410.5      21.015285      73408.343    
      1900   300.78073      0.00095       -0.0047246349   0.0038297756   0.1143177     -59839.454      315.34725      98.75352       97.031119      327.21576      3135435.2      20.994349      73338.872    
      2000   305.88622      0.001          0.016793939    0.0026028449   0.16347185    -59843.568      320.7          98.839204      96.936002      327.23211      3135236.1      20.894635      72994.192    
      2100   299.37997      0.00105       -0.012634019   -0.0064824917   0.13201075    -59837.901      313.87865      98.782005      96.979461      327.24845      3134983.1      20.913691      73064.412    
      2200   296.86865      0.0011        -0.0076855357   0.0074680217   0.23103922    -59840.277      311.24571      98.877659      96.657072      327.2648       3127743.3      20.826708      72764.162    
      2300   296.45325      0.00115        0.020262748   -0.0060984093   0.28105031    -59840.79       310.81019      99.003054      96.57299       327.28114      3129141.9      20.781161      72608.655    
      2400   299.98139      0.0012        -0.0014172051  -0.0019760695   0.26579718    -59840.438      314.5092       98.972876      96.595558      327.29749      3129075.3      20.790715      72645.666    
      2500   306.77866      0.00125       -0.01032774     0.0051176181   0.31051613    -59842.998      321.63565      98.949028      96.539134      327.31384      3126650.2      20.810823      72719.559    
      2600   305.7803       0.0013         0.00040317842  0.0029112949   0.35886563    -59843.639      320.58894      98.994919      96.436889      327.33018      3124943.3      20.9646        73260.563    
      2700   296.23474      0.00135       -0.0028814035   0.0022941032   0.39500917    -59842.55       310.5811       99.039759      96.349949      327.34653      3123696.3      20.9166        73096.478    
      2800   289.79545      0.0014         0.0063326001  -0.0076810219   0.4783231     -59836.372      303.82997      99.049575      96.201704      327.36287      3119355        21.127806      73838.257    
      2900   301.30937      0.00145       -0.0010954101   0.0019840839   0.49733931    -59843.655      315.90149      98.907921      96.213904      327.37922      3115444.5      21.12429       73829.656    
      3000   300.45983      0.0015         0.0011278531   0.0065032791   0.59137307    -59838.364      315.01081      98.937764      96.247348      327.39557      3117623.4      21.123193      73829.509    
      3100   305.30215      0.00155       -0.013960858   -0.0066798741   0.62286584    -59841.006      320.08764      98.778319      96.194769      327.41191      3111054.1      21.160069      73962.091    
      3200   295.51602      0.0016         0.0062342228   0.007132729    0.6997561     -59831.786      309.82757      98.81378       96.107769      327.42826      3109511.5      21.176418      74022.931    
      3300   293.23169      0.00165        0.0047086477   0.0036340713   0.6642439     -59836.942      307.43262      98.831146      96.12218       327.4446       3110679.6      21.070122      73655.045    
      3400   298.72008      0.0017         0.00094693369 -0.0088900539   0.78271662    -59846.091      313.18681      98.783289      96.104144      327.46095      3108745.1      21.062761      73632.988    
      3500   298.45481      0.00175        0.0045361536  -0.010382875    0.80043898    -59842.202      312.90869      98.714535      96.100749      327.4773       3106626.7      20.990222      73383.066    
      3600   303.63564      0.0018         0.0028279436   0.010437735    0.82475143    -59844.507      318.34043      98.561951      96.223334      327.49364      3105936.5      21.089455      73733.669    
      3700   303.64491      0.00185       -0.0058075952  -0.0046042064   0.90280901    -59843.879      318.35014      98.522733      96.185328      327.50999      3103629.2      20.932904      73189.985    
      3800   293.45576      0.0019        -0.0048796148   0.010980028    0.94178657    -59836.493      307.66754      98.387644      96.172742      327.52633      3099122.8      20.911402      73118.453    
      3900   297.68497      0.00195       -0.0028889265   0.0012981847   1.0093671     -59845.252      312.10156      98.451601      96.064818      327.54268      3097811.9      20.915761      73137.344    
      4000   300.52252      0.002          0.0013758366  -0.0094954424   1.0494406     -59844.122      315.07654      98.406087      95.975605      327.55903      3093658.6      20.958307      73289.776    
      4100   299.09149      0.00205        0.013211819   -0.0030467356   1.1161884     -59837.214      313.57621      98.438319      95.882707      327.57537      3091830.8      20.933903      73208.089    
      4200   302.58469      0.0021        -0.0061659031   0.0086851938   1.119688      -59838.746      317.23858      98.347718      95.899196      327.59172      3089670.5      20.894089      73072.503    
      4300   304.40721      0.00215       -0.009260321   -0.0027717678   1.1899089     -59841.931      319.14936      98.496837      95.744486      327.60807      3089517.4      20.809706      72781.022    
      4400   295.51739      0.0022         0.010568264   -0.01566491     1.1834712     -59838.274      309.82901      98.504495      95.61059       327.62441      3085590.6      20.825047      72838.31     
      4500   297.07216      0.00225        0.0039254636   0.019290754    1.3020979     -59843.722      311.45908      98.482088      95.659138      327.64076      3086609.1      20.823411      72836.221    
      4600   298.69707      0.0023        -0.013489798   -0.00096508764  1.3115065     -59843.283      313.16268      98.569512      95.550214      327.6571       3085985.3      20.824805      72844.732    
      4700   299.99932      0.00235        0.0085736351  -0.0067956288   1.3498326     -59842.137      314.528        98.521227      95.457438      327.67345      3081632.4      20.955638      73306.04     
      4800   299.28608      0.0024        -0.00016685628  0.0016149915   1.3914541     -59838.336      313.78021      98.507988      95.390225      327.6898       3079202.4      21.045193      73622.99     
      4900   301.0402       0.00245       -0.0011374153   0.0069761785   1.4384148     -59835.868      315.61929      98.414926      95.343306      327.70614      3074933.7      21.187537      74124.653    
      5000   307.88509      0.0025        -0.0067537449  -0.0033687548   1.4699815     -59836.242      322.79566      98.482827      95.222038      327.72249      3073294.8      21.292784      74496.575    
      5100   302.90269      0.00255        0.00022387906  0.0016393348   1.5220685     -59833.44       317.57198      98.44475       95.059361      327.73883      3067011.1      21.292249      74498.419    
      5200   300.5193       0.0026         0.0074712487  -0.0017840349   1.573879      -59836.63       315.07316      98.496877      94.997668      327.75518      3066796.6      21.359873      74738.755    
      5300   296.99434      0.00265        9.1021905e-06 -0.0033784051   1.6366562     -59835.223      311.37748      98.48197       95.01045       327.77153      3066898        21.227443      74279.084    
      5400   301.21241      0.0027         0.0026152342  -0.0015804384   1.6940741     -59841.325      315.79983      98.470269      94.921719      327.78787      3063822.5      21.116067      73893.042    
      5500   299.56661      0.00275        0.0033263482   0.00044871652  1.7118375     -59843.337      314.07433      98.425681      94.962254      327.80422      3063895.7      20.932681      73254.958    
      5600   297.58803      0.0028        -0.0069203075   0.0051352926   1.7766628     -59844.203      311.99993      98.413476      94.95504       327.82056      3063435.8      20.988305      73453.279    
      5700   298.31926      0.00285       -0.0064426501  -0.002440271    1.8135805     -59844.614      312.76658      98.381337      94.860394      327.83691      3059535.4      20.992616      73472.029    
      5800   298.95924      0.0029        -0.0010677352   0.012667716    1.9129367     -59840.105      313.43755      98.447475      94.695453      327.85326      3056421.2      20.94694       73315.822    
      5900   301.801        0.00295        0.0069012194  -0.0095724393   1.9116836     -59837.857      316.41693      98.46032       94.65053       327.8696       3055522.2      20.979626      73433.889    
      6000   302.90104      0.003          0.0030299714  -0.00058901235  1.9652788     -59837.864      317.57025      98.434937      94.518192      327.88595      3050615.5      21.087546      73815.315    
      6100   303.32076      0.00305       -0.0016504614  -0.0065498486   2.0044585     -59841.707      318.01029      98.232466      94.605529      327.90229      3047305.7      21.041038      73656.191    
      6200   299.49225      0.0031        -0.0049571677   0.017499635    2.0668677     -59844.917      313.99637      98.290084      94.494604      327.91864      3045669.8      20.930922      73274.37     
      6300   298.15431      0.00315        0.0094002956  -0.017021719    2.1101068     -59844.798      312.59364      98.31097       94.439503      327.93499      3044692.4      20.757031      72669.241    
      6400   299.32144      0.0032        -0.0020941793  -0.00084290174  2.1811162     -59842.296      313.81728      98.213736      94.463332      327.95133      3042600.2      20.639201      72260.326    
      6500   298.31461      0.00325       -0.0030010368   0.0068978371   2.2022458     -59837.436      312.7617       98.148421      94.426742      327.96768      3039550.5      20.729685      72580.737    
      6600   307.36874      0.0033        -0.00052133888  0.0075215545   2.3237196     -59842.9        322.25431      98.133659      94.350815      327.98402      3036801.1      20.789385      72793.392    
      6700   304.98801      0.00335       -0.0012930627  -0.017681056    2.2680714     -59841.358      319.75828      98.184478      94.274103      328.00037      3036054.6      20.950809      73362.27     
      6800   301.57714      0.0034        -0.0025886627   0.012331157    2.3707237     -59841.983      316.18223      98.008762      94.276058      328.01672      3030835        20.999113      73535.078    
      6900   301.00826      0.00345        0.0070460568   0.0086158667   2.3817611     -59842.593      315.5858       98.18408       94.161602      328.03306      3032721.5      21.014809      73593.71     
      7000   303.18316      0.0035        -0.0076999865  -0.0090836193   2.3753316     -59843.728      317.86602      98.147973      94.034597      328.04941      3027668.1      21.093071      73871.466    
      7100   299.00982      0.00355        0.0039516137  -0.00028349547  2.4671421     -59837.687      313.49057      98.121721      93.928562      328.06576      3023595.8      21.111818      73940.805    
      7200   302.60801      0.0036         0.0015897673   0.0012835986   2.4610757     -59835.972      317.26303      98.105562      93.815265      328.0821       3019601.8      21.140664      74045.522    
      7300   295.51607      0.00365        0.0037001598  -0.0016058284   2.5937545     -59827.91       309.82763      98.106203      93.819796      328.09845      3019917.8      21.109569      73940.296    
      7400   300.13331      0.0037        -0.0038977609  -0.0075084723   2.6362664     -59841.076      314.66847      98.080023      93.672385      328.11479      3014518.5      21.153977      74099.534    
      7500   295.94929      0.00375        0.011169738    0.011624049    2.6907749     -59839.902      310.28183      98.172794      93.607882      328.13114      3015442.3      21.216854      74323.485    
      7600   302.57542      0.0038        -0.0088715538  -0.0029928403   2.7123837     -59842.606      317.22885      98.234867      93.510129      328.14749      3014348.1      21.346619      74781.783    
      7700   300.19583      0.00385       -0.012569598   -0.005404857    2.7175504     -59836.456      314.73403      98.274021      93.33183       328.16383      3009949.6      21.28695       74576.466    
      7800   306.05956      0.0039         0.0082947266   0.0069018657   2.8113643     -59841.509      320.88173      98.296604      93.209062      328.18018      3006830.8      21.147279      74090.834    
      7900   299.03252      0.00395        0.0085170841  -0.0030518807   2.8549222     -59841.27       313.51438      98.44136       93.099065      328.19652      3007855        20.977073      73498.167    
      8000   296.62568      0.004          0.0024802606  -0.0096120982   2.8717787     -59841.75       310.99097      98.271992      93.044108      328.21287      3001057        20.913076      73277.588    
      8100   304.17226      0.00405       -0.0059418106   0.011789571    2.9549698     -59845.403      318.90303      98.245904      93.056628      328.22922      3000813.5      20.777614      72806.566    
      8200   305.65206      0.0041        -0.0045675811   0.0026919864   2.9986055     -59842.35       320.4545       98.267308      92.829619      328.24556      2994294.3      20.758949      72744.785    
      8300   300.55197      0.00415        0.0025946625  -0.0080941782   3.1245102     -59833.819      315.10742      98.273725      92.804293      328.26191      2993822        20.757475      72743.242    
      8400   302.37651      0.0042         0.0020908616   0.0017303158   3.1264098     -59834.601      317.02032      98.162639      92.732878      328.27825      2988285.4      20.883459      73188.39     
      8500   304.1497       0.00425       -0.0034502298   0.010483143    3.203979      -59838.772      318.87937      98.243687      92.730472      328.2946       2990824        20.909512      73283.344    
      8600   298.78535      0.0043         0.0051408075  -0.016627887    3.1726464     -59841.114      313.25523      98.224518      92.674989      328.31095      2988600.1      20.795948      72888.955    
      8700   299.86627      0.00435        0.0005645353   0.0035463731   3.2286219     -59843.022      314.3885       98.04694       92.759905      328.32729      2986079.2      20.735827      72681.855    
      8800   300.10815      0.0044        -0.0099886542   0.01223014     3.2375162     -59840.273      314.6421       98.072123      92.640092      328.34364      2983136.8      20.773843      72818.731    
      8900   297.611        0.00445        0.0092940606  -0.0070601655   3.3441342     -59834.823      312.02401      98.059867      92.597445      328.35998      2981539.3      20.824274      72999.14     
      9000   295.58881      0.0045        -0.00683178    -0.0014217013   3.3574738     -59830.053      309.90389      97.806309      92.599858      328.37633      2974055.3      20.99982       73618.179    
      9100   304.56145      0.00455        0.0067327043   0.015804985    3.4218737     -59836.07       319.31107      97.794259      92.488742      328.39268      2970268.4      21.159157      74180.453    
      9200   303.95185      0.0046        -0.0035176514  -0.016257465    3.4288964     -59834.15       318.67195      97.762272      92.543776      328.40902      2971211.6      21.150754      74154.684    
      9300   293.85833      0.00465       -0.01016488     0.0048941245   3.5003535     -59827.958      308.08961      97.608576      92.443377      328.42537      2963469.6      21.043816      73783.431    
      9400   297.86532      0.0047         0.013400577    0.0062598499   3.4883239     -59837.406      312.29065      97.75051       92.326431      328.44171      2964172        21.017348      73694.296    
      9500   300.08891      0.00475       -0.0024416254  -0.0028943434   3.6139865     -59841.458      314.62192      97.595405      92.387458      328.45806      2961572.1      21.039256      73774.786    
      9600   304.19455      0.0048        -0.011223475   -0.0051255873   3.5800718     -59843.003      318.9264       97.709113      92.251343      328.47441      2960801.6      21.183217      74283.286    
      9700   304.21252      0.00485        0.013975045    0.0021336341   3.6477965     -59836.353      318.94524      97.621501      92.215808      328.49075      2957154.4      21.132668      74109.711    
      9800   298.24217      0.0049        -0.0030038348   0.0015287074   3.6905476     -59829.708      312.68575      97.730283      92.098902      328.5071       2956843.7      21.125041      74086.651    
      9900   300.59126      0.00495        0.011674022   -0.011251795    3.7575116     -59834.204      315.14861      97.612377      92.075097      328.52345      2952660        21.107893      74030.197    
     10000   299.35792      0.005         -0.0060282523   0.0053264268   3.7865201     -59835.996      313.85553      97.582955      91.968689      328.53979      2948505.5      21.082736      73945.646    
     10100   299.07361      0.00505       -0.0045251213   0.0075628614   3.8792643     -59838.006      313.55746      97.554407      91.882661      328.55614      2945032.2      20.990038      73624.179    
     10200   300.51085      0.0051        -0.010762411    0.00075406945  3.8998555     -59840.453      315.0643       97.645652      91.737994      328.57248      2943291.9      20.774227      72870.829    
     10300   297.43715      0.00515        0.01372577    -0.0046697528   3.9762464     -59832.597      311.84175      97.698447      91.609778      328.58883      2940913.7      20.795733      72949.897    
     10400   308.25223      0.0052         0.00045193185 -0.00088073697  4.0136769     -59838.578      323.18059      97.596366      91.619667      328.60518      2938304.2      20.808626      72998.755    
     10500   300.57067      0.00525       -0.0075730985   0.0053969698   4.1240192     -59832.429      315.12702      97.666448      91.43833       328.62152      2934740.3      20.722839      72701.424    
     10600   298.11331      0.0053        -0.0022554755  -0.0030417217   4.1179667     -59835.051      312.55065      97.700214      91.311085      328.63787      2931815.4      20.709768      72659.181    
     10700   297.8245       0.00535        0.010315371   -0.0038606046   4.1552015     -59837.183      312.24785      97.793039      91.167145      328.65421      2930120.7      20.748801      72799.745    
     10800   297.05885      0.0054        -0.0040209233   0.0031898223   4.1749086     -59835.957      311.44513      97.763438      91.107189      328.67056      2927452.9      20.809015      73014.646    
     10900   296.75598      0.00545       -0.00056319548  0.0038440805   4.1969548     -59833.673      311.12759      97.787691      90.957569      328.68691      2923515.8      20.966184      73569.778    
     11000   303.44901      0.0055         0.0024964137  -0.0087971014   4.2734182     -59835.606      318.14476      97.763926      90.891622      328.70325      2920831.4      20.976809      73610.724    
     11100   302.80338      0.00555        0.0075309838   0.0019168939   4.3153476     -59831.997      317.46785      97.694584      90.880743      328.7196       2918555.5      21.037395      73826.998    
     11200   301.05591      0.0056        -0.00063073721 -0.003744047    4.36336       -59837.52       315.63576      97.68893       90.79239       328.73594      2915694.3      20.96983       73593.553    
     11300   297.38575      0.00565       -0.01019772     0.0095409683   4.355876      -59837.972      311.78786      97.602566      90.799337      328.75229      2913484.4      21.100438      74055.601    
     11400   300.97348      0.0057        -0.0050916753   0.00063613978  4.3595348     -59839.312      315.54934      97.580593      90.675693      328.76864      2909006.7      21.156913      74257.503    
     11500   304.23455      0.00575        0.0083924538   0.00041170175  4.4572661     -59836.983      318.96834      97.484927      90.678865      328.78498      2906400.9      21.040943      73854.137    
     11600   302.84219      0.0058        -0.010075768    0.0027652023   4.4673079     -59834.044      317.50854      97.447998      90.638251      328.80133      2904143        21.050637      73891.838    
     11700   301.3962       0.00585        0.0088967466  -0.0091930069   4.556829      -59835.169      315.99253      97.48213       90.523764      328.81767      2901634.9      21.074397      73978.919    
     11800   295.34355      0.0059        -0.0012845826   0.0053269707   4.570814      -59832.655      309.64675      97.332468      90.552918      328.83402      2898257.2      21.066067      73953.351    
     11900   298.30547      0.00595       -0.00037503941  0.00096093172  4.684525      -59835.56       312.75211      97.36984       90.452218      328.85037      2896289.8      20.940997      73517.943    
     12000   299.14557      0.006          0.0010587375  -0.00045954177  4.6540935     -59835.362      313.6329       97.252369      90.4425        328.86671      2892628.5      21.001133      73732.727    
     12100   299.90206      0.00605       -0.0040285847  -0.0055979919   4.7306976     -59835.367      314.42602      97.350082      90.316064      328.88306      2891630.7      20.932536      73495.545    
     12200   300.13793      0.0061         0.013284793   -0.0063524348   4.7552525     -59834.925      314.67333      97.207912      90.214361      328.89941      2884299.7      20.928329      73484.425    
     12300   300.44039      0.00615       -0.0090502229   0.020410498    4.8183768     -59833.801      314.99043      97.142217      90.349651      328.91575      2886816.4      20.876437      73305.864    
     12400   302.66532      0.0062         0.0018073684  -0.01263552     4.8812177     -59833.545      317.32311      97.142135      90.101334      328.9321       2879022.9      20.868328      73281.03     
     12500   305.48747      0.00625        0.0019242473   0.00094450046  4.9168954     -59833.322      320.28194      96.9997        90.131396      328.94844      2875903.6      20.857171      73245.491    
     12600   304.14645      0.0063        -0.0011692843   0.0075704173   4.9779224     -59833.398      318.87597      97.027211      90.039911      328.96479      2873942.1      20.898893      73395.657    
     12700   297.22806      0.00635       -0.0095962109  -0.009143811    5.0166429     -59832.607      311.62253      97.03644       90.023937      328.98114      2873848.4      20.777028      72971.302    
     12800   298.26862      0.0064         0.0050463926  -0.0047944808   5.106214      -59836.586      312.71348      96.941396      89.854515      328.99748      2865772.7      20.677704      72626.072    
     12900   295.76034      0.00645        0.0098259971   0.009313364    5.058367      -59833.983      310.08372      96.948836      89.881676      329.01383      2867001.4      20.74223       72856.327    
     13000   298.91974      0.0065        -0.0064815214   0.00054835907  5.1713867     -59832.241      313.39614      96.901654      89.841367      329.03017      2864463.3      20.81532       73116.686    
     13100   304.15801      0.00655       -0.0070304328  -0.0026722796   5.0933067     -59835.877      318.88809      96.877802      89.671812      329.04652      2858495.6      20.922435      73496.593    
     13200   298.22684      0.0066         0.015042448    0.0050828598   5.207027      -59830.262      312.66968      96.880177      89.649883      329.06287      2858008.5      20.967927      73660.055    
     13300   303.02807      0.00665       -0.014745163   -0.0051236596   5.194048      -59836.923      317.70343      96.927659      89.549458      329.07921      2856348.1      21.043567      73929.45     
     13400   296.21057      0.0067         0.0037648122  -0.0054536743   5.231455      -59831.639      310.55576      96.827713      89.355724      329.09556      2847371.1      21.20436       74498.042    
     13500   298.21087      0.00675        0.0085029721   0.011839461    5.2792193     -59833.427      312.65293      96.812273      89.308638      329.1119       2845558.2      21.138504      74270.356    
     13600   295.95827      0.0068        -0.007473816   -0.0076837163   5.3526425     -59825.318      310.29125      96.862823      89.290337      329.12825      2846602        21.082838      74078.453    
     13700   299.30494      0.00685       -0.0029380487   0.0039411602   5.3822601     -59825.893      313.79999      96.700956      89.237195      329.1446       2840294.7      21.071271      74041.488    
     13800   303.78908      0.0069         0.005183921    0.0060378329   5.4194486     -59833.892      318.5013       96.749947      89.099577      329.16094      2837492.2      21.047554      73961.821    
     13900   298.4534       0.00695       -0.00096896715 -0.0098068602   5.4976026     -59833.983      312.90721      96.766134      89.064904      329.17729      2837003.4      20.935818      73572.831    
     14000   298.39145      0.007         -0.0070759917   0.0074084605   5.5395803     -59834.105      312.84226      96.778998      88.896511      329.19363      2832156.6      20.879573      73378.818    
     14100   299.97448      0.00705        0.015175361   -0.0025662649   5.596656      -59833.732      314.50195      96.769334      88.852811      329.20998      2830622.3      20.9408        73597.65     
     14200   300.61165      0.0071        -0.0065944659  -0.00879427     5.6339444     -59830.645      315.16998      96.704838      88.833811      329.22633      2828271.2      20.990316      73775.336    
     14300   301.82879      0.00715       -0.00056054999 -0.003259605    5.6258442     -59824.792      316.44606      96.548735      88.737914      329.24267      2820797.6      21.021072      73887.106    
     14400   298.9845       0.0072         0.0025910204   0.01692124     5.750675      -59821.835      313.46403      96.450881      88.787733      329.25902      2819660.7      20.837215      73244.502    
     14500   305.24497      0.00725       -0.007558814   -0.00023455303  5.7611671     -59832.16       320.02769      96.595034      88.576294      329.27536      2817289.9      20.750768      72944.255    
     14600   300.22164      0.0073         0.010779667   -0.012702731    5.8874873     -59831.252      314.76109      96.45898       88.547194      329.29171      2812537.2      20.621643      72493.945    
     14700   296.74223      0.00735       -0.0054056759   0.013597561    5.9047625     -59829.783      311.11317      96.400374      88.498293      329.30806      2809415.5      20.612308      72464.726    
     14800   301.84296      0.0074         0.0011777575  -0.0031766247   5.9457102     -59835.45       316.46092      96.434098      88.423641      329.3244       2808167        20.564775      72301.207    
     14900   302.62539      0.00745       -0.0074230565  -0.0077823906   6.0007881     -59834.359      317.28125      96.401291      88.309898      329.34075      2803739.8      20.652158      72612.03     
     15000   304.01617      0.0075         0.01412389    -0.004114631    6.0484632     -59830.332      318.73938      96.37692       88.203861      329.3571       2799804.2      20.804328      73150.686    
     15100   301.60432      0.00755       -0.0081699714   0.016959709    5.9800902     -59827.63       316.21072      96.310936      88.183196      329.37344      2797370.7      20.961433      73706.745    
     15200   302.02741      0.0076        -0.0039897144  -0.0098719087   6.0536096     -59832.223      316.6543       96.387578      88.045574      329.38979      2795366.3      21.070603      74094.297    
     15300   299.84534      0.00765        0.0057738754  -0.0037404921   6.0647117     -59836.034      314.36656      96.248558      87.970052      329.40613      2789078.7      21.040549      73992.285    
     15400   296.86497      0.0077         0.00035153643  0.016756916    6.0604006     -59831.866      311.24186      96.282317      87.974897      329.42248      2790349        21.170407      74452.643    
     15500   302.49693      0.00775       -0.0055291706  -0.0091492661   6.166596      -59834.481      317.14656      96.224541      87.896342      329.43883      2786322.8      21.11228       74251.906    
     15600   302.06727      0.0078        -0.0044902048   0.00060242932  6.1501442     -59833.399      316.6961       96.177873      87.723942      329.45517      2779646.9      21.06544       74090.845    
     15700   300.72581      0.00785        0.016978449   -9.5595361e-05  6.2696518     -59830.352      315.28967      96.202435      87.633837      329.47152      2777638.8      20.992307      73837.287    
     15800   301.17933      0.0079        -0.013375964   -0.0025875133   6.2839563     -59825.42       315.76516      96.147609      87.662467      329.48786      2777100.5      21.023762      73951.592    
     15900   306.3526       0.00795       -0.002498897    0.00068718229  6.2964857     -59825.126      321.18897      96.092606      87.402244      329.50421      2767410.1      21.061887      74089.377    
     16000   304.82006      0.008          0.0095732383   0.0060035882   6.3853078     -59827.13       319.5822       96.148194      87.404324      329.52056      2769214.3      21.121198      74301.699    
     16100   300.43845      0.00805        0.00020819341 -0.0058888601   6.4159707     -59827.269      314.98839      96.164142      87.221951      329.5369       2764031.6      21.072841      74135.261    
     16200   301.45615      0.0081         0.0018247664  -0.006830853    6.4702679     -59829.945      316.05538      96.090806      87.206128      329.55325      2761559.7      21.069973      74128.849    
     16300   300.68444      0.00815        0.0022262233   0.0049401858   6.572008      -59830.441      315.2463       96.019903      87.198084      329.56959      2759404.3      20.920769      73607.568    
     16400   298.04242      0.0082        -0.010969035    0.0041012976   6.5453813     -59830.619      312.47633      95.967831      87.145164      329.58594      2756370.8      20.84834       73356.372    
     16500   298.1129       0.00825        0.004257875    0.0040889803   6.682743      -59834.228      312.55022      95.958755      87.004499      329.60229      2751797.9      20.872005      73443.282    
     16600   296.75555      0.0083         0.0019174092  -0.0032567429   6.6659274     -59829.035      311.12714      95.90957       86.915452      329.61863      2747708.7      20.869432      73437.872    
     16700   301.48116      0.00835        0.0068204022  -0.010126412    6.7610216     -59826.686      316.0816       95.792828      86.919914      329.63498      2744641.1      20.766785      73080.287    
     16800   301.14038      0.0084        -0.018420144    0.011075414    6.856138      -59824.952      315.72432      95.67612       86.828232      329.65132      2738541.6      20.692975      72824.156    
     16900   296.29227      0.00845        0.013763605   -0.006053008    6.9053411     -59819.723      310.64142      95.742601      86.73373       329.66767      2737597.6      20.665351      72730.544    
     17000   297.53852      0.0085         0.00066198751  0.00042259165  6.8893595     -59826.02       311.94802      95.637241      86.793354      329.68402      2736600.5      20.738913      72993.062    
     17100   298.99004      0.00855       -0.011640315    0.010676891    6.9511319     -59832.48       313.46983      95.545353      86.745424      329.70036      2732596.9      20.814203      73261.686    
     17200   298.87047      0.0086         0.0026655113  -0.0014648107   6.9415408     -59831.171      313.34448      95.55553       86.602642      329.71671      2728524.9      20.86265       73435.849    
     17300   305.3044       0.00865        0.0035782111  -0.0015624033   6.9849489     -59835.108      320.09         95.542109      86.579185      329.73305      2727538        20.922332      73649.578    
     17400   299.56741      0.0087         0.0016784606  -0.0032118157   7.0015914     -59827.162      314.07517      95.428213      86.513307      329.7494       2722348.5      21.044964      74084.932    
     17500   305.50876      0.00875       -0.00039525706  0.0015616949   7.0149967     -59824.622      320.30426      95.400542      86.392364      329.76575      2717889.2      20.996475      73917.9      
     17600   299.35243      0.0088         0.01065111    -0.0047898932   7.0747109     -59816.565      313.84978      95.372256      86.330556      329.78209      2715274        21.042814      74084.708    
     17700   305.30014      0.00885       -0.0034992659  -0.0069254517   7.1007337     -59827.713      320.08553      95.257216      86.270772      329.79844      2710255.1      21.107692      74316.807    
     17800   301.34186      0.0089         0.0065140977   0.0056170911   7.157529      -59827.776      315.93556      95.173293      86.22702       329.81479      2706628.1      20.999624      73939.982    
     17900   302.9872       0.00895       -0.0052136598   0.0015778607   7.1480176     -59830.116      317.66058      95.180139      86.161116      329.83113      2704888        21.077702      74218.573    
     18000   299.10154      0.009          6.0693924e-05 -0.0043565835   7.2109157     -59826.148      313.58674      95.140621      86.140078      329.84748      2703238.8      21.067485      74186.274    
     18100   299.83153      0.00905       -0.0062993787   0.013545014    7.2700795     -59830.631      314.35208      95.095101      86.025375      329.86382      2698481.2      20.989595      73915.656    
     18200   296.66041      0.0091        -0.0081782483  -0.0020768508   7.3210045     -59829.396      311.02739      95.108618      85.959573      329.88017      2696934.1      21.060732      74169.846    
     18300   300.97203      0.00915        0.00062711607  0.001212711    7.4167501     -59829.191      315.54782      95.09136       85.811813      329.89652      2691943        20.970398      73855.374    
     18400   300.19051      0.0092         0.0079114361  -0.00093164709  7.500399      -59823.349      314.72844      95.080612      85.724135      329.91286      2689021.8      20.885331      73559.422    
     18500   302.46768      0.00925       -0.0031286511  -0.0060919148   7.4549474     -59824.347      317.1159       95.060327      85.596924      329.92921      2684591.6      20.965477      73845.359    
     18600   297.7702       0.0093         0.013118842   -0.0060875518   7.6259929     -59821.071      312.19092      95.107447      85.411274      329.94555      2680229.6      20.71593       72970.013    
     18700   298.97133      0.00935       -0.0039838398   0.0068744628   7.6282457     -59823.114      313.45023      94.984978      85.433388      329.9619       2677604        20.717371      72978.702    
     18800   294.80689      0.0094        -0.0057874155  -0.0010740087   7.6974411     -59818.773      309.0841       95.038921      85.285309      329.97825      2674613.5      20.679962      72850.536    
     18900   298.14375      0.00945       -0.0043838705   0.0051973962   7.7710903     -59822.932      312.58257      94.868603      85.256787      329.99459      2669059.7      20.628266      72672.021    
     19000   298.1045       0.0095         0.0069979308   0.020420137    7.8705942     -59826.398      312.54141      95.011145      85.136582      330.01094      2669433.5      20.580497      72507.327    
     19100   298.26633      0.00955       -0.0058688347  -0.032545953    7.811141      -59826.618      312.71108      95.025993      84.969613      330.02728      2664746.5      20.670154      72826.806    
     19200   296.18131      0.0096         0.0023461057   0.0077199778   7.8916355     -59821.29       310.52508      94.940995      84.962079      330.04363      2662258.8      20.784986      73235.018    
     19300   302.44739      0.00965        0.0042497226   0.0067332974   7.8933758     -59822.374      317.09463      95.003169      84.780926      330.05998      2658453.8      20.77128       73190.35     
     19400   303.88958      0.0097         0.0038518427  -0.015127838    7.9348815     -59823.617      318.60666      94.904277      84.822538      330.07632      2657121.5      20.844626      73452.432    
     19500   298.13063      0.00975       -0.0048282152   0.013848444    7.9127934     -59824.19       312.5688       94.793844      84.690088      330.09267      2650016.6      20.979505      73931.381    
     19600   297.06978      0.0098         0.0015055648  -0.0015440446   7.9468811     -59825.171      311.45658      94.802943      84.582815      330.10901      2647045.1      20.953809      73844.484    
     19700   300.67994      0.00985       -0.0063574432   0.00079187801  8.044556      -59825.322      315.24158      94.71854       84.478788      330.12536      2641566.5      20.921012      73732.554    
     19800   300.53387      0.0099        -0.0074806728   0.0047625759   8.0472876     -59820.675      315.08843      94.717801      84.419619      330.14171      2639826.5      20.901654      73667.98     
     19900   297.64123      0.00995        0.0060170658   0.002031663    8.1669878     -59814.638      312.0557       94.72311       84.292234      330.15805      2636121.4      20.965009      73894.931    
     20000   302.15114      0.01           0.0052661788  -0.010184486    8.0700479     -59819.641      316.78403      94.674051      84.197995      330.1744       2631940.7      21.026807      74116.418    
     20100   301.99018      0.01005        0.0013248131   0.0077000765   8.2454123     -59827.833      316.61527      94.668659      84.13548       330.19075      2629967        20.935743      73799.085    
     20200   304.66424      0.0101        -0.0081025765  -0.0067478196   8.224489      -59830.779      319.41883      94.662084      84.054115      330.20709      2627371.2      20.905517      73696.187    
     20300   294.90149      0.01015        0.006822935    0.0011444643   8.2614194     -59818.539      309.18328      94.592205      83.987951      330.22344      2623494.9      20.949841      73856.093    
     20400   298.07588      0.0102         0.0038854321  -0.0038629043   8.311835      -59817.164      312.51141      94.534175      83.942934      330.23978      2620609.9      20.967712      73922.753    
     20500   302.53411      0.01025       -7.2558658e-05 -0.0034258542   8.4033173     -59820.385      317.18554      94.472747      83.896189      330.25613      2617578.2      20.811356      73375.146    
     20600   292.80362      0.0103        -0.0017909238   0.011398125    8.5096455     -59819.17       306.98381      94.321643      83.813199      330.27248      2610935.6      20.671208      72884.63     
     20700   298.16461      0.01035       -0.0014529281   0.0020142704   8.571418      -59824.799      312.60443      94.435079      83.661419      330.28882      2609470.9      20.620684      72710.084    
     20800   300.12656      0.0104         0.002768599   -0.021888362    8.581004      -59822.249      314.6614       94.315773      83.571196      330.30517      2603492.4      20.674661      72904.021    
     20900   300.29211      0.01045        0.00088878079  0.01303651     8.5653837     -59817.366      314.83497      94.143722      83.54462       330.32151      2598045.3      20.822102      73427.568    
     21000   299.97764      0.0105        -0.00079493323 -0.00049402908  8.6419317     -59814.794      314.50527      94.171037      83.534323      330.33786      2598607.3      20.776554      73270.57     
     21100   297.9801       0.01055       -0.006180683    0.0037161651   8.670084      -59816.37       312.41099      94.129637      83.412058      330.35421      2593791.5      20.741561      73150.786    
     21200   296.43691      0.0106         0.0021215951   0.0034089735   8.7332865     -59819.013      310.79306      94.161189      83.257652      330.37055      2589986        20.781904      73296.692    
     21300   298.99121      0.01065        0.0065783852  -0.0073535836   8.8500875     -59820.799      313.47106      94.169444      83.220416      330.3869       2589182.8      20.700897      73014.596    
     21400   301.2837       0.0107        -0.0026648152  -0.005680485    8.81295       -59822.597      315.87458      94.014423      83.161626      330.40324      2583222.2      20.738789      73151.865    
     21500   299.53538      0.01075        0.0062765252   0.0047713595   8.8870114     -59820.073      314.04159      93.996193      83.125232      330.41959      2581718.7      20.776267      73287.687    
     21600   305.42727      0.0108        -0.0099938832   0.0052464402   8.8336834     -59822.882      320.21882      93.893356      83.028081      330.43594      2576007.6      20.868057      73615.116    
     21700   306.12424      0.01085        0.0021318384   0.0030261407   8.867453      -59822.175      320.94954      93.912605      82.858979      330.45228      2571415.3      20.878078      73654.112    
     21800   304.53143      0.0109        -0.00078246645 -0.0036824466   8.954847      -59820.756      319.27959      93.866934      82.7167        330.46863      2565878.4      20.821308      73457.47     
     21900   294.91745      0.01095       -0.0042201009   0.0038750867   8.9424137     -59813.689      309.20002      93.853796      82.663692      330.48497      2564002        20.914237      73788.972    
     22000   295.9432       0.011         -0.0011209277   0.0036372618   8.9950191     -59816.814      310.27544      93.846551      82.534081      330.50132      2559910.8      20.970952      73992.732    
     22100   295.81856      0.01105        0.0089273915  -0.0038544433   9.0773777     -59815.269      310.14477      93.935918      82.393896      330.51767      2558122.9      20.955123      73940.537    
     22200   304.50903      0.0111        -0.0037822652  -0.0031843985   9.0638482     -59818.044      319.25611      93.9092        82.29691       330.53401      2554511.3      20.954264      73941.164    
     22300   306.7384       0.01115        0.0060240338  -0.0022380288   9.1614047     -59820.566      321.59345      93.967325      82.152946      330.55036      2551747.2      20.893075      73728.892    
     22400   302.79411      0.0112        -0.0044958467   0.0038611537   9.2580709     -59822.256      317.45813      93.917628      82.080044      330.5667       2548260.4      20.766683      73286.498    
     22500   293.9205       0.01125       -0.011510817   -0.0041614436   9.2485275     -59814.868      308.15478      93.946469      81.921195      330.58305      2544235.6      20.879087      73686.817    
     22600   299.66129      0.0113         0.021619028    0.00092919495  9.3127595     -59819.413      314.1736       93.846605      81.80976       330.5994       2538199.4      20.800979      73414.788    
     22700   298.23252      0.01135       -0.012752803    0.0027888632   9.3440749     -59813.405      312.67563      93.763406      81.80883       330.61574      2536045.8      20.810675      73452.642    
     22800   299.09582      0.0114        -0.0020804782  -0.001904198    9.4361093     -59810          313.58074      93.79514       81.610624      330.63209      2530882.8      20.808503      73448.606    
     22900   300.11258      0.01145        0.011520262    0.003331215    9.4451718     -59811.104      314.64674      93.656239      81.534027      330.64844      2524887.7      20.852429      73607.294    
     23000   300.57328      0.0115        -0.0061304894   0.00031496594  9.4141207     -59819.779      315.12975      93.667468      81.486741      330.66478      2523850.8      20.900346      73780.082    
     23100   300.1994       0.01155        3.413326e-05  -0.0079961909   9.5308932     -59821.175      314.73776      93.586753      81.440977      330.68113      2520384.3      20.832212      73543.2      
     23200   298.35608      0.0116         0.0041330936   0.0066857135   9.5824929     -59815.768      312.80518      93.445369      81.436813      330.69747      2516572.4      20.704548      73096.127    
     23300   301.79289      0.01165       -0.0063796776   0.0024748356   9.6214497     -59815.696      316.40842      93.43856       81.528454      330.71382      2519345.3      20.78473       73382.83     
     23400   300.38564      0.0117        -0.0016070626  -0.003718578    9.6659359     -59814.546      314.93302      93.313774      81.309236      330.73017      2509339.6      20.821815      73517.396    
     23500   300.57856      0.01175        0.0022733931   0.0031371344   9.651274      -59821.939      315.13529      93.298572      81.26969       330.74651      2507834.5      20.911293      73836.974    
     23600   299.4113       0.0118         0.0048791693   0.00075921     9.7027133     -59820.975      313.9115       93.198245      81.213061      330.76286      2503515.9      20.970549      74049.864    
     23700   297.97497      0.01185       -0.01872138    -0.0107582      9.6704075     -59814.521      312.40561      93.052508      81.157044      330.7792       2498000.4      20.979567      74085.369    
     23800   295.80272      0.0119         0.023786897    0.012542054    9.7729913     -59808.634      310.12816      92.947956      81.075091      330.79555      2492797.2      21.05755       74364.425    
     23900   299.62319      0.01195       -0.0034707588  -0.0070436706   9.7026918     -59810.647      314.13365      92.814999      81.115123      330.8119       2490583.5      21.159784      74729.157    
     24000   299.44543      0.012         -0.011143984    0.00075016808  9.7715651     -59810.415      313.94728      92.717783      81.107865      330.82824      2487875.2      21.113424      74569.112    
     24100   301.78363      0.01205        0.0079378032   0.0057133345   9.8647385     -59816.901      316.39872      92.629819      80.978655      330.84459      2481677.9      21.025286      74261.493    
     24200   295.53786      0.0121        -0.0075072226   0.00088973495  9.892194      -59817.225      309.85047      92.652037      80.984478      330.86093      2482574.3      20.97671       74093.582    
     24300   300.4577       0.01215        0.0030623626  -0.0040227011   10.00807      -59820.282      315.00857      92.66234       80.766695      330.87728      2476295.8      20.929469      73930.37     
     24400   302.41113      0.0122         0.0018291989  -0.00057437727  10.014457     -59817.433      317.05661      92.534956      80.770753      330.89363      2473138        20.88594       73780.258    
     24500   299.00466      0.01225       -0.00032535384  0.0042646131   10.159725     -59811.459      313.48517      92.624614      80.690189      330.90997      2473187.2      20.853949      73670.888    
     24600   298.7491       0.0123        -7.0514007e-05 -0.014074866    10.190105     -59811.413      313.21723      92.481733      80.491397      330.92632      2463410.2      20.748721      73302.767    
     24700   301.57319      0.01235        0.012921161    0.0091600172   10.299456     -59814.121      316.17809      92.421283      80.486585      330.94266      2461774.4      20.702132      73141.788    
     24800   300.42442      0.0124        -0.015011377    0.0012183662   10.253704     -59809.289      314.97369      92.399352      80.299898      330.95901      2455602.8      20.696132      73124.201    
     24900   302.06526      0.01245        0.0031595695   0.0014476964   10.394973     -59806.004      316.69399      92.425081      80.187803      330.97536      2452978.9      20.626989      72883.502    
     25000   298.1672       0.0125         0.0037954323   0.0086819712   10.405246     -59803.223      312.60715      92.385334      80.113119      330.9917       2449761.4      20.737016      73275.891    
     25100   299.21521      0.01255       -0.011659862   -0.012884486    10.421029     -59810.346      313.70592      92.432237      79.978823      331.00805      2447017.2      20.730431      73256.238    
     25200   298.63907      0.0126         0.0099704555   0.0027122514   10.465593     -59811.942      313.10187      92.325538      79.835805      331.0244       2439942.3      20.774447      73415.407    
     25300   296.84054      0.01265       -0.00060052682  0.0070523078   10.504115     -59808.826      311.21624      92.357606      79.788251      331.04074      2439456.4      20.795429      73493.185    
     25400   302.22104      0.0127        -0.006130649   -0.0048900456   10.572848     -59812.118      316.85731      92.410803      79.675177      331.05709      2437522.7      20.733011      73276.212    
     25500   301.38297      0.01275        0.0023064387   0.0061974059   10.598318     -59813.828      315.97866      92.423927      79.438544      331.07343      2430748.5      20.753145      73350.99     
     25600   294.64644      0.0128         0.0032964409  -0.0038854115   10.563004     -59813.82       308.91588      92.419178      79.381875      331.08978      2429009.6      20.895138      73856.506    
     25700   294.31785      0.01285        0.003074939   -0.0067028499   10.592397     -59810.508      308.57138      92.317078      79.232591      331.10613      2421882.8      20.93297       73993.881    
     25800   305.15073      0.0129         0.0032226653   0.002792636    10.579925     -59816.372      319.92888      92.349079      79.093317      331.12247      2418583.1      20.940293      74023.419    
     25900   299.77491      0.01295       -0.0012913365  -0.0087641338   10.710336     -59807.458      314.29272      92.343632      78.978421      331.13882      2415046.5      20.916606      73943.338    
     26000   304.93314      0.013          0.0019939978   0.0027184033   10.67317      -59810.462      319.70076      92.172486      78.902707      331.15516      2408378.5      20.989264      74203.856    
     26100   299.63972      0.01305       -0.0052938904   0.0058954232   10.788018     -59802.792      314.15099      92.216234      78.803555      331.17151      2406612.5      20.917887      73955.165    
     26200   311.26719      0.0131        -0.0010287653  -0.0006336318   10.843265     -59807.768      326.34156      92.194654      78.726624      331.18786      2403819        20.87927       73822.279    
     26300   307.62641      0.01315        0.0024005296  -0.0010224812   10.798352     -59806.446      322.52446      92.062071      78.728576      331.2042       2400540.1      20.942203      74048.445    
     26400   305.13049      0.0132         0.002731694    0.0020986797   10.919575     -59810.713      319.90767      92.006907      78.718145      331.22055      2398902.3      20.904598      73919.126    
     26500   298.35237      0.01325       -0.014308978   -0.0014537405   10.921605     -59808.429      312.80129      91.851902      78.670163      331.23689      2393519.1      20.899925      73906.25     
     26600   298.51709      0.0133         0.0088279492   0.009876266    10.974667     -59810.18       312.97399      91.877631      78.548107      331.25324      2390593        20.966756      74146.238    
     26700   300.01942      0.01335        0.0015574148  -0.0055966061   11.01404      -59813.033      314.54907      91.818346      78.408657      331.26959      2384926.7      20.831021      73669.862    
     26800   301.13364      0.0134         0.00055095383 -0.0022885598   11.138004     -59811.408      315.71725      91.738295      78.313429      331.28593      2380070.9      20.78669       73516.711    
     26900   299.2124       0.01345        0.0027343711  -0.00077661924  11.223514     -59802.455      313.70297      91.600047      78.238448      331.30228      2374326        20.717569      73275.867    
     27000   306.6285       0.0135        -0.010277582    0.0083277036   11.199269     -59807.649      321.47822      91.513657      78.234163      331.31862      2372073.8      20.774565      73481.081    
     27100   302.93022      0.01355        0.003456925   -0.0053161164   11.274055     -59805.684      317.60084      91.590593      78.111406      331.33497      2370459.8      20.771368      73473.396    
     27200   301.25451      0.0136        -0.002881084   -0.0044155264   11.241804     -59810.12       315.84398      91.400663      78.008322      331.35132      2362539        20.901871      73938.667    
     27300   302.60182      0.01365        0.019030602    0.010465005    11.282961     -59812.644      317.25653      91.508212      77.994016      331.36766      2365001.8      20.925066      74024.368    
     27400   298.24523      0.0137        -0.017724154   -0.015176597    11.28274      -59806.895      312.68896      91.402776      77.899177      331.38401      2359520.8      20.979832      74221.768    
     27500   301.3784       0.01375        0.0015800487   0.0099711427   11.330037     -59807.326      315.97386      91.287364      77.838139      331.40035      2354811.1      20.934043      74063.431    
     27600   306.6632       0.0138         0.012086991   -0.0009391104   11.396218     -59809.628      321.5146       91.231766      77.820446      331.4167       2352958.1      20.912885      73992.224    
     27700   301.98442      0.01385       -0.0062674152  -0.0093396119   11.436014     -59800.891      316.60924      91.054329      77.751983      331.43305      2346431.5      20.930964      74059.844    
     27800   305.22102      0.0139        -0.0021885313   0.0082046372   11.504192     -59802.424      320.00258      90.971132      77.621219      331.44939      2340460.4      20.901811      73960.339    
     27900   299.73101      0.01395        0.0019729228   0.0023661245   11.437148     -59802.569      314.24669      90.933238      77.536725      331.46574      2337054.1      21.052927      74498.733    
     28000   300.5656       0.014         -0.0011896533  -0.0054526731   11.488129     -59806.924      315.1217       90.868499      77.47824       331.48209      2333743.7      21.013805      74363.962    
     28100   298.65958      0.01405       -0.00087129724  0.0079703027   11.546362     -59803.352      313.12338      90.747479      77.410046      331.49843      2328699.1      21.019971      74389.45     
     28200   300.854        0.0141         0.0029627327   0.0058923029   11.572708     -59801.616      315.42407      90.753805      77.381129      331.51478      2328106.3      21.018796      74388.959    
     28300   302.73099      0.01415       -0.014876562   -0.011956603    11.650959     -59800.316      317.39196      90.661096      77.304266      331.53112      2323532.4      20.990375      74292.036    
     28400   304.30269      0.0142         0.010827903    0.010842013    11.722859     -59799.707      319.03978      90.631495      77.149164      331.54747      2318227.7      20.930688      74084.436    
     28500   303.1806       0.01425        0.0060248284  -0.011659031    11.840595     -59803.175      317.86335      90.625103      77.066615      331.56382      2315698        20.823667      73709.268    
     28600   295.50689      0.0143        -0.0067978402   0.0013655486   11.91176      -59800.668      309.81801      90.537919      77.019279      331.58016      2312163.3      20.75529       73470.854    
     28700   296.96015      0.01435       -0.0043992839   0.015678093    11.945441     -59804.365      311.34164      90.485631      76.889788      331.59651      2307056.5      20.733099      73395.92     
     28800   297.60904      0.0144         0.0033340664  -0.0081134232   12.034944     -59804.721      312.02196      90.524683      76.758613      331.61285      2304228.2      20.685215      73230.018    
     28900   303.90028      0.01445        0.00073013466 -0.0019171946   12.086784     -59804.624      318.61787      90.415972      76.644077      331.6292       2298140.2      20.669198      73176.924    
     29000   302.22723      0.0145         0.0028955809  -0.0014186314   12.080865     -59800.894      316.8638       90.442656      76.477437      331.64555      2293933.4      20.707808      73317.23     
     29100   299.64363      0.01455        0.00084115566 -0.001446021    12.112428     -59798.47       314.15508      90.369799      76.424676      331.66189      2290617.1      20.762096      73513.066    
     29200   299.04727      0.0146        -0.0060632588   0.0053409667   12.147825     -59798.055      313.52984      90.364476      76.333789      331.67824      2287871        20.785626      73600.006    
     29300   301.8363       0.01465        0.0031882123  -0.002115623    12.200196     -59805.189      316.45394      90.374754      76.182043      331.69458      2283695.1      20.752733      73487.157    
     29400   296.76866      0.0147         0.0048330828  -0.0021474627   12.178345     -59805.791      311.14088      90.303225      76.179403      331.71093      2281921        20.84281       73809.762    
     29500   295.00752      0.01475       -0.0066710481   0.0021918958   12.212735     -59801.79       309.29445      90.198145      76.101484      331.72728      2277046.6      20.824736      73749.39     
     29600   298.14645      0.0148         0.012284301   -0.0073466606   12.212433     -59799.88       312.58539      90.220056      75.951237      331.74362      2273215.1      20.913702      74068.108    
     29700   299.68588      0.01485       -0.0002350862  -0.00032927447  12.271007     -59798.382      314.19938      90.083216      75.927675      331.75997      2269174.9      20.936096      74151.072    
     29800   300.0293       0.0149        -0.010109284    0.008074511    12.274506     -59798.128      314.55943      89.983023      75.829792      331.77631      2263840.5      20.977879      74302.721    
     29900   296.50547      0.01495        0.00068562126  0.0058873404   12.320487     -59793.957      310.86495      89.958812      75.734675      331.79266      2260503.9      21.016123      74441.845    
     30000   301.11666      0.015         -0.00094532022 -0.0011824921   12.372042     -59797.958      315.69945      89.81362       75.664796      331.80901      2254884.2      20.929551      74138.849    
     30100   301.23865      0.01505       -0.0018776266  -0.002087392    12.401218     -59794.847      315.82734      89.850928      75.509895      331.82535      2251313.6      20.932379      74152.518    
     30200   306.38486      0.0151         0.0064079244  -0.002470127    12.499258     -59797.003      321.22278      89.850595      75.41287       331.8417       2248523.2      20.903601      74054.224    
     30300   301.9967       0.01515       -0.0036033266   0.0021790889   12.438327     -59796.759      316.62211      89.730333      75.352843      331.85804      2243836.8      21.027906      74498.262    
     30400   301.93397      0.0152        -0.0075848465   0.0059674031   12.552297     -59801.25       316.55635      89.758796      75.304534      331.87439      2243220.1      20.967057      74286.343    
     30500   301.2968       0.01525        0.0046643428  -0.0042375971   12.679799     -59801.42       315.88831      89.688169      75.147015      331.89074      2236876.6      20.824947      73786.48     
     30600   296.43803      0.0153         0.0056295398  -0.0034939114   12.712216     -59797.768      310.79424      89.606706      75.122949      331.90708      2234239.2      20.77868       73626.177    
     30700   296.4134       0.01535        0.0039562543  -0.00074709282  12.753128     -59798.486      310.76842      89.568887      75.021258      331.92343      2230382.9      20.824094      73790.728    
     30800   301.67752      0.0154        -0.00030710652 -0.0041873172   12.806701     -59799.917      316.28748      89.433655      74.932733      331.93978      2224497.1      20.81363       73757.278    
     30900   300.77352      0.01545       -0.0078353041   0.0068641642   12.883141     -59793.602      315.33969      89.319239      74.90651       331.95612      2220983.1      20.7208        73431.935    
     31000   298.55501      0.0155        -0.0033018008   0.0092460536   12.834771     -59790.338      313.01375      89.30427       74.754243      331.97247      2216206.1      20.898115      74063.964    
     31100   298.64945      0.01555        0.009252047   -0.019342042    12.907883     -59791.808      313.11275      89.245062      74.682422      331.98881      2212717.9      20.822049      73798.014    
     31200   300.00372      0.0156        -0.003452999    0.0073103887   12.975453     -59800.012      314.53261      89.132976      74.666183      332.00516      2209567.1      20.798228      73717.218    
     31300   297.5513       0.01565        0.0026243673   0.00082068871  12.965217     -59797.892      311.96142      89.090099      74.5494        332.02151      2205158.5      20.908191      74110.62     
     31400   299.90952      0.0157        -0.0050262292   9.6332063e-05  12.902099     -59796.652      314.43385      88.996133      74.551156      332.03785      2202993        20.99762       74431.27     
     31500   298.03643      0.01575        0.0034304656   0.0015968864   13.00817      -59791.24       312.47005      89.009883      74.380548      332.0542       2198399.3      20.922853      74169.893    
     31600   302.8191       0.0158         0.0051986365  -0.0067644689   12.990826     -59795.563      317.48434      88.94822       74.324505      332.07054      2195329.1      21.001942      74453.921    
     31700   299.18985      0.01585       -0.00949873     0.0022267715   12.987545     -59792.643      313.67932      88.784515      74.29612       332.08689      2190559.7      21.113882      74854.444    
     31800   300.89155      0.0159        -0.0030201365   0.008278352    13.041182     -59794.507      315.46344      88.755707      74.10144       332.10324      2184218.3      21.036643      74584.281    
     31900   298.81891      0.01595        0.0055073464  -0.00082915693  13.008686     -59793.712      313.29042      88.756001      74.038959      332.11958      2182491.3      21.149336      74987.521    
     32000   292.17051      0.016         -0.0034663738  -0.0022722689   13.06036      -59790.486      306.32004      88.664755      73.908115      332.13593      2176501.7      21.144178      74972.923    
     32100   300.12548      0.01605        0.0026581965  -0.001041567    13.124157     -59798.808      314.66027      88.682659      73.745701      332.15227      2172264.2      21.10673       74843.822    
     32200   300.8594       0.0161         0.0054395066  -0.0028453703   13.189443     -59791.636      315.42973      88.635836      73.709174      332.16862      2170148.7      21.075233      74735.813    
     32300   301.69864      0.01615       -0.0026704904  -0.0012082033   13.348255     -59790.102      316.30961      88.605948      73.596878      332.18497      2166218.4      20.919373      74186.76     
     32400   298.67877      0.0162         0.0078204526  -0.00043971812  13.338521     -59790.031      313.1435       88.572924      73.514029      332.20131      2163079.9      20.917721      74184.554    
     32500   294.31219      0.01625       -0.0062360213  -0.00052172971  13.451766     -59789.379      308.56545      88.446744      73.495202      332.21766      2159551.4      20.875052      74036.871    
     32600   300.07062      0.0163        -2.4292785e-06  0.0055078102   13.471774     -59795.091      314.60275      88.342452      73.423752      332.234        2155014        20.848505      73946.355    
     32700   299.52805      0.01635        0.0025605108   0.0021567901   13.539113     -59791.161      314.03391      88.304078      73.345652      332.25035      2151892.6      20.826905      73873.378    
     32800   302.76342      0.0164        -0.014581888   -0.0089661393   13.559626     -59785.766      317.42596      88.217495      73.240113      332.2667       2146794.8      20.857967      73987.196    
     32900   303.64043      0.01645        0.0093140815   0.0082831374   13.614202     -59787.272      318.34544      88.184701      73.014189      332.28304      2139482.3      20.837174      73917.076    
     33000   301.21614      0.0165         0.010286308   -0.00088092343  13.643674     -59789.194      315.80375      88.189135      73.009287      332.29939      2139551.5      20.837311      73921.198    
     33100   298.45497      0.01655       -0.011410732   -0.0024138067   13.756677     -59788.484      312.90886      88.010478      72.920271      332.31574      2132718.6      20.734249      73559.201    
     33200   304.45434      0.0166         0.0034237566   0.0018307116   13.784183     -59794.479      319.19877      88.003327      72.804464      332.33208      2129263.3      20.731204      73552.016    
     33300   303.33389      0.01665        0.0023623776   0.00035686051  13.842974     -59791.016      318.02406      87.971815      72.712964      332.34843      2125930.3      20.738917      73582.998    
     33400   303.7115       0.0167        -0.0016416516  -0.006340279    13.898794     -59783.232      318.41996      87.944275      72.618792      332.36477      2122616.7      20.709644      73482.749    
     33500   300.85378      0.01675        0.0037768504  -0.00031571025  13.935915     -59781.185      315.42384      87.916106      72.5554        332.38112      2120188.8      20.706827      73476.367    
     33600   298.38936      0.0168        -0.0048648077   0.0074133123   13.955124     -59784.613      312.84007      87.752294      72.518295      332.39747      2115260        20.789196      73772.277    
     33700   299.9563       0.01685       -0.012368098    0.0059221089   13.923742     -59789.636      314.48289      87.736353      72.368096      332.41381      2110599.3      20.83836       73950.375    
     33800   295.72448      0.0169         0.01296497    -0.0064640834   13.936699     -59786.639      310.04613      87.742994      72.225913      332.43016      2106715.6      20.94246       74323.456    
     33900   299.78388      0.01695       -0.0024121158  -0.00330167     13.965727     -59785.894      314.30212      87.658973      72.144928      332.4465       2102441.7      20.962275      74397.434    
[...]
    991200   297.02244      0.4956         0.0082003728   0.00099381182  0.10316336    -59252.85       311.40695      22.392522      22.754386      488.92749      249122.29      22.883118      119443.05    
    991300   302.69441      0.49565        0.0016128775   0.0055451104   0.061727318   -59258.72       317.35361      22.385151      22.777663      488.94384      249303.38      22.771743      118865.68    
    991400   301.31972      0.4957        -0.0040073788  -0.0050187549   0.067574585   -59257.92       315.91235      22.376566      22.79309       488.96019      249384.89      23.055688      120351.86    
    991500   300.47312      0.49575       -0.0072356771  -0.0024233309   0.043860476   -59258.559      315.02474      22.357051      22.79945       488.97653      249245.26      22.739748      118706.61    
    991600   295.91737      0.4958         0.0087691078   0.0015363712   0.072140272   -59255.792      310.24836      22.35174       22.812069      488.99288      249332.31      22.902147      119558.36    
    991700   299.41545      0.49585        0.00099488935  0.0021265008   0.095941565   -59258.917      313.91585      22.35735       22.832318      489.00922      249624.6       22.692881      118469.87    
    991800   299.98992      0.4959        -0.0026795205  -0.0011218837   0.10983334    -59255.764      314.51815      22.350093      22.852256      489.02557      249769.83      22.803266      119050.13    
    991900   303.66424      0.49595       -0.0041136122  -0.0057441005   0.11293312    -59256.082      318.37041      22.351066      22.841216      489.04192      249668.38      22.766604      118862.69    
    992000   302.07746      0.496          0.003694633    0.010767997    0.21960633    -59256.407      316.70678      22.335538      22.858086      489.05826      249687.55      22.858213      119344.97    
    992100   298.83013      0.49605        0.0033225912  -0.0038091203   0.19692692    -59259.229      313.30219      22.370646      22.845583      489.07461      249951.59      22.715254      118602.53    
    992200   293.88357      0.4961        -0.0072790693  -0.0022333164   0.21877477    -59255.25       308.11606      22.366194      22.851844      489.09095      249978.68      22.931634      119736.31    
    992300   298.86382      0.49615        0.0050319666  -0.0067862735   0.25669716    -59257.804      313.3375       22.377555      22.796037      489.1073       249503.2       22.820665      119160.87    
    992400   297.77063      0.4962         6.2326302e-05  0.01410434     0.2938814     -59255.133      312.19137      22.375017      22.829034      489.12365      249844.36      22.891483      119534.65    
    992500   301.22631      0.49625       -0.0006200661  -0.0065193217   0.3444351     -59257.801      315.8144       22.414988      22.808228      489.13999      250070.94      22.810499      119115.75    
    992600   301.36418      0.4963        -0.0044921117   0.0017484945   0.33560194    -59258.897      315.95896      22.423485      22.770265      489.15634      249757.69      23.070796      120479.04    
    992700   299.54471      0.49635        0.0096729076  -0.0021215678   0.30887875    -59257.896      314.05137      22.419594      22.751754      489.17269      249519.69      23.119185      120735.77    
    992800   301.23948      0.4964        -0.003744166    0.0036965531   0.32099385    -59259.514      315.82822      22.477186      22.713092      489.18903      249743.91      22.803496      119091.12    
    992900   298.32325      0.49645       -0.0046846885  -0.0033272855   0.26697193    -59255.233      312.77076      22.464897      22.702039      489.20538      249494.24      22.977362      120003.15    
    993000   300.8523       0.4965         0.0028267692   0.0017120721   0.3208785     -59254.681      315.42229      22.482176      22.67514       489.22172      249398.62      22.772123      118935.22    
    993100   302.42902      0.49655       -0.00040356976  0.00270289     0.23674245    -59255.917      317.07537      22.490399      22.671039      489.23807      249453.06      22.927278      119749.58    
    993200   298.37548      0.4966         0.0029828535  -0.0020410298   0.18584294    -59256.027      312.82552      22.507154      22.668785      489.25442      249622.42      22.788663      119029.57    
    993300   296.72716      0.49665       -0.0082660361  -0.0047472906   0.13984786    -59259.013      311.09737      22.522305      22.650239      489.27076      249594.43      22.759351      118880.43    
    993400   300.88216      0.4967         0.0065324759   0.0032691644   0.12305357    -59262.404      315.45359      22.491213      22.646921      489.28711      249221.68      22.7941        119065.91    
    993500   301.95833      0.49675        0.0031058425   0.0041364162   0.10574933    -59260.049      316.58188      22.523955      22.6575        489.30345      249709.42      22.79935       119097.32    
    993600   303.3071       0.4968        -0.003409646   -0.0050296019   0.033010305   -59253.831      317.99597      22.503007      22.663152      489.3198       249547.75      22.978602      120037.69    
    993700   304.10195      0.49685        0.00058941987 -0.0013557329   0.023807087   -59251.805      318.82931      22.506142      22.666381      489.33615      249626.41      22.749638      118845.58    
    993800   299.81356      0.4969        -0.00017330548  0.0048429539  -0.036081492   -59251.158      314.33324      22.509655      22.643169      489.35249      249418.04      22.800893      119117.31    
    993900   303.27363      0.49695        0.0050178604  -0.0021242565  -0.028163548   -59259.537      317.96088      22.500877      22.696812      489.36884      249919.77      22.680129      118490.38    
    994000   296.38884      0.497         -0.0065427659  -0.0023115571  -0.070889945   -59256.254      310.74267      22.52116       22.680749      489.38518      249976.37      22.803078      119136.69    
    994100   296.67019      0.49705       -0.00052630061  0.0031303367  -0.10980814    -59257.965      311.03764      22.494667      22.684482      489.40153      249731.74      22.693849      118569.97    
    994200   300.20113      0.4971         0.0081214361  -0.0013621663  -0.097926714   -59259.711      314.73958      22.507992      22.683887      489.41788      249881.47      22.860469      119444.52    
    994300   303.31788      0.49715       -0.0077075227   0.0053587559  -0.081529486   -59255.53       318.00727      22.489663      22.716431      489.43422      250044.54      22.941342      119871.07    
    994400   301.83078      0.4972         0.0028110403  -0.0073687812  -0.044798346   -59253.808      316.44815      22.487569      22.708417      489.45057      249941.4       22.818897      119235.27    
    994500   303.25853      0.49725       -0.00080237917  0.0034784     -0.083129113   -59259.961      317.94504      22.476404      22.704413      489.46691      249781.61      22.904576      119686.96    
    994600   299.8093       0.4973         0.0040568655  -0.0033418948  -0.016218939   -59260.341      314.32878      22.476205      22.712745      489.48326      249879.4       22.960882      119985.19    
    994700   296.04003      0.49735       -0.008234913    0.0058976639  -0.022193423   -59256.039      310.37697      22.474915      22.725178      489.49961      250010.18      22.953055      119948.3     
    994800   295.71666      0.4974         0.0086563148  -0.010879442   -0.06882242    -59253.658      310.03794      22.470754      22.713058      489.51595      249838.92      22.781042      119053.37    
    994900   303.12892      0.49745       -0.0084899508   0.013232026   -0.10769313    -59258.066      317.80916      22.46246       22.72332       489.5323       249867.89      22.716968      118722.48    
    995000   304.49088      0.4975         0.0062509093  -0.0060603134  -0.092407081   -59253.731      319.23707      22.453976      22.735275      489.54864      249913.27      22.783015      119071.63    
    995100   306.27551      0.49755       -0.003592532    0.0012189876  -0.13101572    -59252.492      321.10814      22.46719       22.743689      489.56499      250161.24      22.864034      119499.05    
    995200   299.7331       0.4976         0.0030859759  -5.7689646e-05 -0.15029851    -59253.681      314.24889      22.439985      22.762313      489.58134      250071.27      22.724169      118772.01    
    995300   303.56694      0.49765       -0.0016604282  -0.0020269518  -0.18239787    -59260.997      318.26839      22.463336      22.741477      489.59768      250110.7       22.937839      119892.8     
    995400   298.22923      0.4977        -0.0021715224   0.0034977294  -0.17697705    -59257.587      312.67218      22.432753      22.754804      489.61403      249924.9       22.762298      118979.24    
    995500   299.83827      0.49775        0.0062247893  -0.0041182399  -0.26964282    -59258.345      314.35915      22.470605      22.740328      489.63038      250195.7       22.8542        119463.61    
    995600   300.08276      0.4978        -0.0088164643   0.0055826257  -0.30529823    -59254.659      314.61548      22.431722      22.767482      489.64672      250069.35      22.873411      119568.02    
    995700   301.61625      0.49785        0.0099609961  -0.0073259956  -0.33443115    -59251.885      316.22324      22.426822      22.773822      489.66307      250092.7       22.750541      118929.7     
    995800   300.79941      0.4979        -0.0098853169   0.01000469    -0.37571891    -59253.692      315.36684      22.435472      22.781805      489.67941      250285.21      22.77788       119076.59    
    995900   301.50446      0.49795        0.0096111125  -0.0069198621  -0.33268973    -59261.923      316.10603      22.405319      22.795606      489.69576      250108.59      22.732911      118845.47    
    996000   300.40257      0.498         -0.0075468899   0.0011605797  -0.29352078    -59260.769      314.95078      22.418583      22.798055      489.71211      250291.9       22.875041      119592.5     
    996100   296.66559      0.49805        0.0031780645  -0.0030568329  -0.30945789    -59253.283      311.03282      22.401768      22.80772       489.72845      250218.54      22.99472       120222.21    
    996200   300.0525       0.4981         0.0028815087   0.004358823   -0.26278795    -59253.077      314.58375      22.429583      22.78069       489.7448       250240.68      22.842173      119428.64    
    996300   302.66787      0.49815       -0.003658783    0.00086593874 -0.25299182    -59254.084      317.32578      22.422226      22.785764      489.76114      250222.67      22.932064      119902.63    
    996400   301.4982       0.4982         0.0036952968  -0.0023624401  -0.12690511    -59258.81       316.09947      22.446105      22.760697      489.77749      250221.93      22.674102      118557.81    
    996500   300.1959       0.49825       -0.0073862031  -1.9789137e-05 -0.11343951    -59262.054      314.7341       22.451689      22.750243      489.79384      250177.57      22.764664      119035.31    
    996600   297.03169      0.4983         0.0064262206  -2.8674712e-05 -0.074615101   -59258.189      311.41665      22.460734      22.72529       489.81018      250012.2       22.788715      119165.05    
    996700   297.86389      0.49835       -0.0036878543   8.7891446e-05 -0.082999535   -59253.689      312.28915      22.486932      22.709122      489.82653      250134.07      23.063965      120608.39    
    996800   304.76451      0.4984         0.0038761339   0.0012026226   0.036881959   -59257.776      319.52396      22.477531      22.697165      489.84287      249906.19      22.830307      119390.51    
    996900   300.19131      0.49845       -0.0022658818   0.0005541995  -0.020912922   -59254.849      314.72929      22.496748      22.704225      489.85922      250206         22.910225      119812.43    
    997000   301.89137      0.4985        -0.00077467137 -0.0008235048  -0.051067192   -59258.47       316.51168      22.475862      22.704718      489.87557      249987.47      22.795277      119215.27    
    997100   300.44183      0.49855        0.0022820575  -0.0035409665  -0.073505717   -59258.639      314.99194      22.478525      22.70902       489.89191      250072.8       22.87361       119628.93    
    997200   298.35961      0.4986        -0.0032981977   0.0083322474   0.019383      -59257.671      312.80888      22.454681      22.723352      489.90826      249973.54      22.741686      118942.94    
    997300   300.30919      0.49865        0.0075026512  -0.0074771591   0.088382399   -59256.961      314.85287      22.483637      22.726603      489.9246       250340.06      22.937769      119972.49    
    997400   304.95228      0.4987        -0.010867126    0.0040281966   0.051837555   -59256.643      319.72082      22.484992      22.701666      489.94095      250088.77      22.735173      118916.81    
    997500   301.90722      0.49875        0.0066955946  -0.0017467952   0.016519459   -59255.21       316.5283       22.49598       22.686326      489.9573       250050.26      22.839369      119465.8     
    997600   296.44444      0.4988        -0.0015630767   0.0057076145   0.012668608   -59255.981      310.80096      22.525794      22.655143      489.97364      250045.83      22.918106      119881.64    
    997700   300.71189      0.49885        0.0059618633  -0.007977299    0.076799639   -59260.869      315.27508      22.539992      22.64962       489.98999      250150.79      22.745375      118982.08    
    997800   302.01444      0.4989        -0.012146337    0.0017289457   0.093484935   -59259.397      316.64071      22.552222      22.622514      490.00633      249995.33      22.938431      119995.97    
    997900   302.51318      0.49895        0.0066913708  -0.00057439483  0.038356119   -59257.778      317.16361      22.537672      22.619729      490.02268      249811.62      22.732838      118924.43    
    998000   302.24647      0.499          0.0024406521   0.003883783    0.11151657    -59259.871      316.88397      22.546555      22.625483      490.03903      249982         22.832994      119452.37    
    998100   295.47299      0.49905       -0.0064439214  -0.0033858078   0.070898767   -59259.668      309.78246      22.525542      22.654521      490.05537      250077.89      22.726316      118898.24    
    998200   297.63215      0.4991         0.0015438046  -0.0053082063   0.11365728    -59261.588      312.04618      22.50644       22.62176       490.07172      249512.8       22.792803      119250.06    
    998300   297.45294      0.49915        0.0041068435   0.0080326169   0.10329197    -59256.022      311.8583       22.487109      22.661124      490.08807      249740.63      22.663103      118575.44    
    998400   301.92834      0.4992         0.0011017932   0.00031433231  0.14945369    -59257.307      316.55044      22.475398      22.679406      490.10441      249820.28      22.700872      118777.01    
    998500   302.52215      0.49925       -0.0058369757  -0.0036307789   0.1263673     -59257.973      317.17301      22.458734      22.70537       490.12076      249929.17      22.914943      119901.09    
    998600   300.06756      0.4993         0.0040094042  -0.003030764    0.20612679    -59257.34       314.59954      22.426111      22.708242      490.1371       249606.02      23.213721      121468.48    
    998700   299.28922      0.49935        0.00030184907  0.011032991    0.28708461    -59258.159      313.78351      22.432245      22.728336      490.15345      249903.56      22.760898      119103       
    998800   295.99544      0.4994        -0.0012649014  -0.0061002675   0.35803987    -59258.707      310.33022      22.410162      22.763191      490.1698       250048.74      22.840081      119521.34    
    998900   292.79308      0.49945        0.00013156057 -0.0019025674   0.36496766    -59257.931      306.97277      22.406045      22.766855      490.18614      250051.4       22.760868      119110.79    
    999000   300.32559      0.4995         0.00020838893  0.0011399195   0.32675355    -59261.337      314.87006      22.375332      22.781624      490.20249      249878.95      23.060766      120684.22    
    999100   302.32858      0.49955        0.005636633    0.0074551875   0.34222429    -59258.032      316.97007      22.421246      22.791833      490.21883      250512.26      22.723509      118923.22    
    999200   302.25392      0.4996        -0.0080787299  -0.0073899523   0.30608751    -59256.858      316.89178      22.400536      22.816407      490.23518      250559.08      22.824971      119458.2     
    999300   300.81257      0.49965        0.0039697336  -0.000665441    0.26221685    -59257.651      315.38063      22.407345      22.781283      490.25153      250257.75      22.850807      119597.4     
    999400   295.6227       0.4997        -0.00084376733  0.003912704    0.20170248    -59258.516      309.93942      22.41369       22.781948      490.26787      250344.26      22.828618      119485.25    
    999500   296.44295      0.49975        0.0036366305  -0.00018951832  0.18710339    -59262.483      310.79939      22.434203      22.759436      490.28422      250334.12      23.075723      120782.63    
    999600   299.99647      0.4998        -0.0078152848  -0.0065169742   0.17286919    -59262.194      314.52501      22.421079      22.740264      490.30056      249985.26      22.760244      119135.33    
    999700   300.21284      0.49985        0.0031869446   0.0035290648   0.11988089    -59259.741      314.75186      22.410302      22.707385      490.31691      249512.15      22.767105      119175.21    
    999800   300.73825      0.4999         0.0043200637   0.0022101705   0.10556036    -59258.283      315.30272      22.424755      22.711684      490.33326      249728.66      22.967528      120228.34    
    999900   298.03948      0.49995       -0.0052772319  -0.00074252328  0.066881658   -59253.225      312.47325      22.430333      22.690435      490.3496       249565.39      22.691718      118788.52    
   1000000   304.89938      0.5            0.0010414728  -0.00022299361  0.09297049    -59257.171      319.66537      22.448648      22.66824       490.36595      249533.18      22.819465      119461.24    
   1000100   302.74706      0.50005        0.002435311   -0.0020036372   0.07267389    -59257.484      317.4088       22.462288      22.652472      490.38229      249519.43      22.722091      118955.44    
Loop time of 5947.03 on 176 procs for 1000000 steps with 8112 atoms

Performance: 7.264 ns/day, 3.304 hours/ns, 168.151 timesteps/s
99.8% CPU use with 176 MPI tasks x 1 OpenMP threads

MPI task timing breakdown:
Section |  min time  |  avg time  |  max time  |%varavg| %total
---------------------------------------------------------------
Pair    | 376.06     | 1367.2     | 2931.8     |2012.3 | 22.99
Neigh   | 10.652     | 62.408     | 92.041     | 330.2 |  1.05
Comm    | 504.44     | 2036.6     | 3663.6     |1902.1 | 34.25
Output  | 2.0672     | 2.1044     | 2.3838     |   1.6 |  0.04
Modify  | 1527       | 2451       | 4830.1     |2017.8 | 41.21
Other   |            | 27.73      |            |       |  0.47

Nlocal:        46.0909 ave         176 max           0 min
Histogram: 85 13 8 5 6 28 23 2 2 4
Nghost:        1967.38 ave        3373 max           0 min
Histogram: 32 6 22 4 0 0 5 30 40 37
Neighs:              0 ave           0 max           0 min
Histogram: 176 0 0 0 0 0 0 0 0 0
FullNghs:      16887.5 ave       63004 max           0 min
Histogram: 91 7 7 6 4 26 23 5 3 4

Total # of neighbors = 2972200
Ave neighs/atom = 366.39546
Neighbor list builds = 6326
Dangerous builds = 0


Total wall time: 1:41:44
