ITEM: TIMESTEP
0
ITEM: NUMBER OF ATOMS
10668
ITEM: BOX BOUNDS pp pp pp
-50 50
-50 50
-0.297226 380.216
ITEM: ATOMS id type xu yu zu
 1 1 11.5607 1.52027 124.912
 2 1 11.3154 2.8151 124.388
 3 1 10.9957 3.8803 125.268
 4 1 10.4876 5.0963 124.745
 5 1 9.95438 6.07226 125.625
 6 1 9.20559 7.15675 125.102
 7 1 8.4819 8.00121 125.982
 8 1 7.52485 8.90722 125.459
 9 1 6.64204 9.5836 126.338
 10 1 5.51818 10.2719 125.815
 11 1 4.51449 10.7509 126.695
 12 1 3.2725 11.1916 126.172
 13 1 11.6439 0.617796 122.629
 14 1 11.4998 1.92777 122.106
 15 1 11.2638 3.01458 122.985
 16 1 10.8517 4.26637 122.462
 17 1 10.3959 5.2808 123.342
 18 1 9.73362 6.42017 122.819
 19 1 9.07771 7.31828 123.699
 20 1 8.19391 8.29589 123.176
 21 1 7.3663 9.03878 124.056
 22 1 6.29929 9.81228 123.532
 23 1 5.33583 10.3678 124.412
 24 1 4.13183 10.9037 123.889
 25 1 3.07425 11.2477 124.769
 26 1 1.7854 11.5228 124.246
 27 1 0.679508 11.6405 125.126
 28 1 -0.638368 11.6428 124.602
 29 1 -1.74466 11.529 125.482
 30 1 -3.03448 11.2585 124.959
 31 1 -4.09327 10.9182 125.839
 32 1 -5.29916 10.3866 125.316
 33 1 -6.26458 9.83448 126.196
 34 1 -7.33431 9.06476 125.673
 35 1 -8.16455 8.32479 126.552
 36 1 -9.05179 7.35032 126.029
 37 1 11.464 2.13066 120.703
 38 1 11.1503 3.41067 120.18
 39 1 10.7747 4.45744 121.059
 40 1 10.2029 5.6448 120.536
 41 1 9.61867 6.59115 121.416
 42 1 8.81347 7.63444 120.893
 43 1 8.04606 8.43937 121.773
 44 1 7.04235 9.2934 121.25
 45 1 6.12494 9.92205 122.129
 46 1 4.96619 10.5498 121.606
 47 1 3.93853 10.975 122.486
 48 1 2.67493 11.3493 121.963
 49 1 1.58153 11.5525 122.843
 50 1 0.267813 11.6572 122.32
 51 1 -0.843977 11.6297 123.2
 52 1 -2.15091 11.4602 122.676
 53 1 -3.23293 11.2031 123.556
 54 1 -4.47647 10.7668 123.033
 55 1 -5.48185 10.2913 123.913
 56 1 -6.60813 9.60701 123.39
 57 1 -7.49333 8.93376 124.27
 58 1 -8.45357 8.03113 123.746
 59 1 -9.18024 7.18924 124.626
 60 1 -9.93286 6.1074 124.103
 61 1 -10.4695 5.13333 124.983
 62 1 -10.9819 3.91913 124.46
 63 1 -11.3053 2.85507 125.34
 64 1 -11.5553 1.56111 124.816
 65 1 -11.6515 0.453148 125.696
 66 1 -11.6282 -0.864525 125.173
 67 1 -11.4929 -1.9684 126.053
 68 1 -11.1974 -3.25272 125.53
 69 1 -10.8366 -4.30469 126.41
 70 1 -10.2816 -5.50002 125.887
 71 1 -9.71087 -6.45453 126.766
 72 1 -8.92051 -7.5091 126.243
 73 1 11.5948 1.23386 118.42
 74 1 11.3815 2.53436 117.897
 75 1 11.0883 3.60714 118.777
 76 1 10.6104 4.83533 118.253
 77 1 10.1015 5.82419 119.133
 78 1 9.37979 6.92687 118.61
 79 1 8.67721 7.78897 119.49
 80 1 7.74286 8.71838 118.967
 81 1 6.87705 9.41638 119.847
 82 1 5.77056 10.1323 119.324
 83 1 4.77902 10.6359 120.203
 84 1 3.54831 11.1073 119.68
 85 1 2.47399 11.3948 120.56
 86 1 1.17238 11.6012 120.037
 87 1 0.0618082 11.6601 120.917
 88 1 -1.25434 11.5926 120.394
 89 1 -2.35305 11.4204 121.273
 90 1 -3.62673 11.0819 120.75
 91 1 -4.666 10.686 121.63
 92 1 -5.84203 10.0912 121.107
 93 1 -6.77684 9.48875 121.987
 94 1 -7.80429 8.66343 121.464
 95 1 -8.59415 7.88052 122.343
 96 1 -9.42851 6.8604 121.82
 97 1 -10.0392 5.93095 122.7
 98 1 -10.6444 4.76022 122.177
 99 1 -11.0494 3.72449 123.057
 100 1 -11.3991 2.45386 122.534
 101 1 -11.5811 1.35671 123.414
 102 1 -11.6602 0.0412056 122.89
 103 1 -11.6111 -1.06984 123.77
 104 1 -11.4162 -2.37323 123.247
 105 1 -11.1382 -3.45005 124.127
 106 1 -10.6777 -4.68487 123.604
 107 1 -10.1828 -5.68082 124.484
 108 1 -9.47677 -6.79359 123.96
 109 1 -8.78644 -7.66554 124.84
 110 1 -7.86532 -8.60806 124.317
 111 1 -7.00946 -9.31823 125.197
 112 1 -5.9132 -10.0497 124.674
 113 1 -4.92888 -10.5673 125.554
 114 1 -3.70496 -11.056 125.03
 115 1 -2.63481 -11.3587 125.91
 116 1 -1.33624 -11.5835 125.387
 117 1 -0.226617 -11.6581 126.267
 118 1 1.09035 -11.6092 125.744
 119 1 2.19139 -11.4525 126.624
 120 1 3.46972 -11.1321 126.101
 121 1 11.6556 0.329601 116.137
 122 1 11.544 1.64274 115.614
 123 1 11.335 2.73506 116.494
 124 1 10.9539 3.99665 115.971
 125 1 10.5234 5.02205 116.85
 126 1 9.88944 6.17745 116.327
 127 1 9.25594 7.09151 117.207
 128 1 8.3966 8.09068 116.684
 129 1 7.58762 8.85382 117.564
 130 1 6.54007 9.65347 117.041
 131 1 5.59064 10.2326 117.921
 132 1 4.40026 10.7981 117.397
 133 1 3.35151 11.1682 118.277
 134 1 2.06986 11.4751 117.754
 135 1 0.96722 11.6201 118.634
 136 1 -0.350195 11.655 118.111
 137 1 -1.45897 11.5686 118.991
 138 1 -2.75508 11.3301 118.467
 139 1 -3.82196 11.0161 119.347
 140 1 -5.04063 10.5145 118.824
 141 1 -6.01941 9.98643 119.704
 142 1 -7.10786 9.2434 119.181
 143 1 -7.95614 8.52419 120.061
 144 1 -8.86721 7.57196 119.538
 145 1 -9.54825 6.69275 120.417
 146 1 -10.2425 5.57255 119.894
 147 1 -10.7268 4.57141 120.774
 148 1 -11.1741 3.33178 120.251
 149 1 -11.4407 2.25207 121.131
 150 1 -11.6218 0.946687 120.608
 151 1 -11.6591 -0.164817 121.487
 152 1 -11.566 -1.47941 120.964
 153 1 -11.3725 -2.57456 121.844
 154 1 -11.0093 -3.84142 121.321
 155 1 -10.5933 -4.8728 122.201
 156 1 -9.97577 -6.03705 121.678
 157 1 -9.35526 -6.95997 122.557
 158 1 -8.51012 -7.97119 122.034
 159 1 -7.71201 -8.74568 122.914
 160 1 -6.67586 -9.56007 122.391
 161 1 -5.73472 -10.1526 123.271
 162 1 -4.55245 -10.7349 122.748
 163 1 -3.50904 -11.1197 123.628
 164 1 -2.23185 -11.4447 123.104
 165 1 -1.13137 -11.6053 123.984
 166 1 0.185418 -11.6588 123.461
 167 1 1.2953 -11.5881 124.341
 168 1 2.59466 -11.3679 123.818
 169 1 3.66587 -11.069 124.698
 170 1 4.89151 -10.5847 124.174
 171 1 5.87765 -10.0705 125.054
 172 1 6.97649 -9.34294 124.531
 173 1 7.83485 -8.6358 125.411
 174 1 8.7593 -7.69654 124.888
 175 1 9.4527 -6.82704 125.768
 176 1 10.1627 -5.71677 125.244
 177 1 10.6611 -4.72258 126.124
 178 1 11.1259 -3.48939 125.601
 179 1 11.4077 -2.41356 126.481
 180 1 11.6072 -1.11087 125.958
 181 1 11.5132 1.84645 114.211
 182 1 11.2313 3.13383 113.688
 183 1 10.8816 4.18957 114.568
 184 1 10.3394 5.39071 114.045
 185 1 9.77876 6.35122 114.924
 186 1 8.99961 7.41411 114.401
 187 1 8.25234 8.23777 115.281
 188 1 7.27006 9.11637 114.758
 189 1 6.36848 9.76752 115.638
 190 1 5.22562 10.4238 115.115
 191 1 4.20879 10.8742 115.994
 192 1 2.95483 11.2797 115.471
 193 1 1.86679 11.5099 116.351
 194 1 0.556065 11.647 115.828
 195 1 -0.556065 11.647 116.708
 196 1 -1.86679 11.5099 116.185
 197 1 -2.95483 11.2797 117.064
 198 1 -4.20879 10.8742 116.541
 199 1 -5.22562 10.4238 117.421
 200 1 -6.36848 9.76752 116.898
 201 1 -7.27006 9.11637 117.778
 202 1 -8.25234 8.23777 117.255
 203 1 -8.99961 7.41411 118.135
 204 1 -9.77876 6.35122 117.611
 205 1 -10.3394 5.39071 118.491
 206 1 -10.8816 4.18957 117.968
 207 1 -11.2313 3.13383 118.848
 208 1 -11.5132 1.84645 118.325
 209 1 -11.6367 0.741202 119.205
 210 1 -11.646 -0.576644 118.681
 211 1 -11.5381 -1.68353 119.561
 212 1 -11.2744 -2.97476 119.038
 213 1 -10.9397 -4.03534 119.918
 214 1 -10.4145 -5.24403 119.395
 215 1 -9.86755 -6.21236 120.275
 216 1 -9.10351 -7.28616 119.752
 217 1 -8.36796 -8.1203 120.631
 218 1 -7.3982 -9.0127 120.108
 219 1 -6.50591 -9.67652 120.988
 220 1 -5.37244 -10.3489 120.465
 221 1 -4.36207 -10.8136 121.345
 222 1 -3.11398 -11.2368 120.822
 223 1 -2.02929 -11.4823 121.701
 224 1 -0.72064 -11.638 121.178
 225 1 0.39138 -11.6537 122.058
 226 1 1.70391 -11.5351 121.535
 227 1 2.7951 -11.3203 122.415
 228 1 4.05466 -10.9326 121.892
 229 1 5.07776 -10.4966 122.771
 230 1 6.22979 -9.85656 122.248
 231 1 7.14048 -9.21822 123.128
 232 1 8.13508 -8.35359 122.605
 233 1 8.89391 -7.54058 123.485
 234 1 9.688 -6.4888 122.962
 235 1 10.2621 -5.53632 123.842
 236 1 10.8213 -4.34296 123.318
 237 1 11.1858 -3.29227 124.198
 238 1 11.4859 -2.009 123.675
 239 1 11.6251 -0.905612 124.555
 240 1 11.653 0.411971 124.032
 241 1 11.6218 0.946687 111.928
 242 1 11.4407 2.25207 111.405
 243 1 11.1741 3.33178 112.285
 244 1 10.7268 4.57141 111.762
 245 1 10.2425 5.57255 112.642
 246 1 9.54825 6.69275 112.118
 247 1 8.86721 7.57196 112.998
 248 1 7.95614 8.52419 112.475
 249 1 7.10786 9.2434 113.355
 250 1 6.01941 9.98643 112.832
 251 1 5.04063 10.5145 113.712
 252 1 3.82196 11.0161 113.188
 253 1 2.75508 11.3301 114.068
 254 1 1.45897 11.5686 113.545
 255 1 0.350195 11.655 114.425
 256 1 -0.96722 11.6201 113.902
 257 1 -2.06986 11.4751 114.782
 258 1 -3.35151 11.1682 114.259
 259 1 -4.40026 10.7981 115.138
 260 1 -5.59064 10.2326 114.615
 261 1 -6.54007 9.65347 115.495
 262 1 -7.58762 8.85382 114.972
 263 1 -8.3966 8.09068 115.852
 264 1 -9.25594 7.09151 115.329
 265 1 -9.88944 6.17745 116.208
 266 1 -10.5234 5.02205 115.685
 267 1 -10.9539 3.99665 116.565
 268 1 -11.335 2.73506 116.042
 269 1 -11.544 1.64274 116.922
 270 1 -11.6556 0.329601 116.399
 271 1 -11.634 -0.782319 117.279
 272 1 -11.4714 -2.09013 116.755
 273 1 -11.2201 -3.1735 117.635
 274 1 -10.7903 -4.41933 117.112
 275 1 -10.3202 -5.42722 117.992
 276 1 -9.6419 -6.55711 117.469
 277 1 -8.97335 -7.44587 118.349
 278 1 -8.07583 -8.41088 117.825
 279 1 -7.2378 -9.142 118.705
 280 1 -6.15997 -9.90034 118.182
 281 1 -5.18875 -10.4422 119.062
 282 1 -3.97729 -10.961 118.539
 283 1 -2.91496 -11.29 119.419
 284 1 -1.62234 -11.5469 118.895
 285 1 -0.514903 -11.6489 119.775
 286 1 0.802875 -11.6326 119.252
 287 1 1.90745 -11.5032 120.132
 288 1 3.19332 -11.2145 119.609
 289 1 4.24719 -10.8593 120.489
 290 1 5.44544 -10.3106 119.966
 291 1 6.40296 -9.74495 120.845
 292 1 7.46171 -8.96018 120.322
 293 1 8.2814 -8.20856 121.202
 294 1 9.15478 -7.22164 120.679
 295 1 9.80114 -6.31662 121.559
 296 1 10.4513 -5.17029 121.036
 297 1 10.8964 -4.15109 121.915
 298 1 11.2952 -2.895 121.392
 299 1 11.5196 -1.80575 122.272
 300 1 11.6498 -0.49432 121.749
 301 1 11.6602 0.0412056 109.645
 302 1 11.5811 1.35671 109.122
 303 1 11.3991 2.45386 110.002
 304 1 11.0494 3.72449 109.479
 305 1 10.6444 4.76022 110.359
 306 1 10.0392 5.93095 109.836
 307 1 9.42851 6.8604 110.715
 308 1 8.59415 7.88052 110.192
 309 1 7.80429 8.66343 111.072
 310 1 6.77684 9.48875 110.549
 311 1 5.84203 10.0912 111.429
 312 1 4.666 10.686 110.906
 313 1 3.62673 11.0819 111.786
 314 1 2.35305 11.4204 111.262
 315 1 1.25434 11.5926 112.142
 316 1 -0.0618082 11.6601 111.619
 317 1 -1.17238 11.6012 112.499
 318 1 -2.47399 11.3948 111.976
 319 1 -3.54831 11.1073 112.856
 320 1 -4.77902 10.6359 112.332
 321 1 -5.77056 10.1323 113.212
 322 1 -6.87705 9.41638 112.689
 323 1 -7.74286 8.71838 113.569
 324 1 -8.67721 7.78897 113.046
 325 1 -9.37979 6.92687 113.926
 326 1 -10.1015 5.82419 113.403
 327 1 -10.6104 4.83533 114.282
 328 1 -11.0883 3.60714 113.759
 329 1 -11.3815 2.53436 114.639
 330 1 -11.5948 1.23386 114.116
 331 1 -11.6596 0.123615 114.996
 332 1 -11.5991 -1.19287 114.473
 333 1 -11.4327 -2.29249 115.352
 334 1 -11.101 -3.56793 114.829
 335 1 -10.7106 -4.60929 115.709
 336 1 -10.122 -5.78846 115.186
 337 1 -9.52454 -6.72645 116.066
 338 1 -8.70468 -7.75826 115.543
 339 1 -7.92597 -8.55226 116.422
 340 1 -6.91028 -9.39202 115.899
 341 1 -5.98408 -10.0076 116.779
 342 1 -4.81658 -10.619 116.256
 343 1 -3.78301 -11.0295 117.136
 344 1 -2.51425 -11.386 116.613
 345 1 -1.41808 -11.5737 117.493
 346 1 -0.103013 -11.6598 116.969
 347 1 1.00828 -11.6166 117.849
 348 1 2.31268 -11.4286 117.326
 349 1 3.39096 -11.1563 118.206
 350 1 4.62821 -10.7024 117.683
 351 1 5.62677 -10.2128 118.563
 352 1 6.74327 -9.51264 118.039
 353 1 7.61886 -8.82695 118.919
 354 1 8.56625 -7.91084 118.396
 355 1 9.28094 -7.05876 119.276
 356 1 10.0182 -5.96639 118.753
 357 1 10.541 -4.98483 119.633
 358 1 11.0362 -3.76351 119.109
 359 1 11.3446 -2.69498 119.989
 360 1 11.5762 -1.39762 119.466
 361 1 11.6567 -0.28841 120.346
 362 1 11.6148 1.0288 119.823
 363 1 11.5553 1.56111 107.719
 364 1 11.3053 2.85507 107.196
 365 1 10.9819 3.91913 108.076
 366 1 10.4695 5.13333 107.553
 367 1 9.93286 6.1074 108.433
 368 1 9.18024 7.18924 107.91
 369 1 8.45357 8.03113 108.789
 370 1 7.49333 8.93376 108.266
 371 1 6.60813 9.60701 109.146
 372 1 5.48185 10.2913 108.623
 373 1 4.47647 10.7668 109.503
 374 1 3.23293 11.2031 108.98
 375 1 2.15091 11.4602 109.859
 376 1 0.843977 11.6297 109.336
 377 1 -0.267813 11.6572 110.216
 378 1 -1.58153 11.5525 109.693
 379 1 -2.67493 11.3493 110.573
 380 1 -3.93853 10.975 110.05
 381 1 -4.96619 10.5498 110.929
 382 1 -6.12494 9.92205 110.406
 383 1 -7.04235 9.2934 111.286
 384 1 -8.04606 8.43937 110.763
 385 1 -8.81347 7.63444 111.643
 386 1 -9.61867 6.59115 111.12
 387 1 -10.2029 5.6448 112
 388 1 -10.7747 4.45744 111.476
 389 1 -11.1503 3.41067 112.356
 390 1 -11.464 2.13066 111.833
 391 1 -11.6148 1.0288 112.713
 392 1 -11.6567 -0.28841 112.19
 393 1 -11.5762 -1.39762 113.07
 394 1 -11.3446 -2.69498 112.546
 395 1 -11.0362 -3.76351 113.426
 396 1 -10.541 -4.98483 112.903
 397 1 -10.0182 -5.96639 113.783
 398 1 -9.28094 -7.05876 113.26
 399 1 -8.56625 -7.91084 114.14
 400 1 -7.61886 -8.82695 113.617
 401 1 -6.74327 -9.51264 114.496
 402 1 -5.62677 -10.2128 113.973
 403 1 -4.62821 -10.7024 114.853
 404 1 -3.39096 -11.1563 114.33
 405 1 -2.31268 -11.4286 115.21
 406 1 -1.00828 -11.6166 114.687
 407 1 0.103013 -11.6598 115.566
 408 1 1.41808 -11.5737 115.043
 409 1 2.51425 -11.386 115.923
 410 1 3.78301 -11.0295 115.4
 411 1 4.81658 -10.619 116.28
 412 1 5.98408 -10.0076 115.757
 413 1 6.91028 -9.39202 116.636
 414 1 7.92597 -8.55226 116.113
 415 1 8.70468 -7.75826 116.993
 416 1 9.52454 -6.72645 116.47
 417 1 10.122 -5.78846 117.35
 418 1 10.7106 -4.60929 116.827
 419 1 11.101 -3.56793 117.707
 420 1 11.4327 -2.29249 117.183
 421 1 11.5991 -1.19287 118.063
 422 1 11.6596 0.123615 117.54
 423 1 11.6416 0.658939 105.437
 424 1 11.4929 1.9684 104.913
 425 1 11.2531 3.05437 105.793
 426 1 10.8366 4.30469 105.27
 427 1 10.3772 5.3175 106.15
 428 1 9.71087 6.45453 105.627
 429 1 9.05179 7.35032 106.507
 430 1 8.16455 8.32479 105.983
 431 1 7.33431 9.06476 106.863
 432 1 6.26458 9.83448 106.34
 433 1 5.29916 10.3866 107.22
 434 1 4.09327 10.9182 106.697
 435 1 3.03448 11.2585 107.577
 436 1 1.74466 11.529 107.053
 437 1 0.638368 11.6428 107.933
 438 1 -0.679508 11.6405 107.41
 439 1 -1.7854 11.5228 108.29
 440 1 -3.07425 11.2477 107.767
 441 1 -4.13183 10.9037 108.647
 442 1 -5.33583 10.3678 108.124
 443 1 -6.29929 9.81228 109.003
 444 1 -7.3663 9.03878 108.48
 445 1 -8.19391 8.29589 109.36
 446 1 -9.07771 7.31828 108.837
 447 1 -9.73362 6.42017 109.717
 448 1 -10.3959 5.2808 109.194
 449 1 -10.8517 4.26637 110.073
 450 1 -11.2638 3.01458 109.55
 451 1 -11.4998 1.92777 110.43
 452 1 -11.6439 0.617796 109.907
 453 1 -11.6498 -0.49432 110.787
 454 1 -11.5196 -1.80575 110.264
 455 1 -11.2952 -2.895 111.144
 456 1 -10.8964 -4.15109 110.62
 457 1 -10.4513 -5.17029 111.5
 458 1 -9.80114 -6.31662 110.977
 459 1 -9.15478 -7.22164 111.857
 460 1 -8.2814 -8.20856 111.334
 461 1 -7.46171 -8.96018 112.214
 462 1 -6.40296 -9.74495 111.69
 463 1 -5.44544 -10.3106 112.57
 464 1 -4.24719 -10.8593 112.047
 465 1 -3.19332 -11.2145 112.927
 466 1 -1.90745 -11.5032 112.404
 467 1 -0.802875 -11.6326 113.284
 468 1 0.514903 -11.6489 112.76
 469 1 1.62234 -11.5469 113.64
 470 1 2.91496 -11.29 113.117
 471 1 3.97729 -10.961 113.997
 472 1 5.18875 -10.4422 113.474
 473 1 6.15997 -9.90034 114.354
 474 1 7.2378 -9.142 113.831
 475 1 8.07583 -8.41088 114.71
 476 1 8.97335 -7.44587 114.187
 477 1 9.6419 -6.55711 115.067
 478 1 10.3202 -5.42722 114.544
 479 1 10.7903 -4.41933 115.424
 480 1 11.2201 -3.1735 114.901
 481 1 11.4714 -2.09013 115.78
 482 1 11.634 -0.782319 115.257
 483 1 11.4564 2.17115 103.51
 484 1 11.1382 3.45005 102.987
 485 1 10.7588 4.49548 103.867
 486 1 10.1828 5.68082 103.344
 487 1 9.59532 6.6251 104.224
 488 1 8.78644 7.66554 103.701
 489 1 8.01619 8.46775 104.58
 490 1 7.00946 9.31823 104.057
 491 1 6.08984 9.94363 104.937
 492 1 4.92888 10.5673 104.414
 493 1 3.89972 10.9888 105.294
 494 1 2.63481 11.3587 104.771
 495 1 1.54069 11.558 105.651
 496 1 0.226617 11.6581 105.127
 497 1 -0.88507 11.6266 106.007
 498 1 -2.19139 11.4525 105.484
 499 1 -3.2725 11.1916 106.364
 500 1 -4.51449 10.7509 105.841
 501 1 -5.51818 10.2719 106.721
 502 1 -6.64204 9.5836 106.197
 503 1 -7.52485 8.90722 107.077
 504 1 -8.4819 8.00121 106.554
 505 1 -9.20559 7.15675 107.434
 506 1 -9.95438 6.07226 106.911
 507 1 -10.4876 5.0963 107.791
 508 1 -10.9957 3.8803 107.268
 509 1 -11.3154 2.8151 108.147
 510 1 -11.5607 1.52027 107.624
 511 1 -11.653 0.411971 108.504
 512 1 -11.6251 -0.905612 107.981
 513 1 -11.4859 -2.009 108.861
 514 1 -11.1858 -3.29227 108.338
 515 1 -10.8213 -4.34296 109.217
 516 1 -10.2621 -5.53632 108.694
 517 1 -9.688 -6.4888 109.574
 518 1 -8.89391 -7.54058 109.051
 519 1 -8.13508 -8.35359 109.931
 520 1 -7.14048 -9.21822 109.408
 521 1 -6.22979 -9.85656 110.287
 522 1 -5.07776 -10.4966 109.764
 523 1 -4.05466 -10.9326 110.644
 524 1 -2.7951 -11.3203 110.121
 525 1 -1.70391 -11.5351 111.001
 526 1 -0.39138 -11.6537 110.478
 527 1 0.72064 -11.638 111.358
 528 1 2.02929 -11.4823 110.834
 529 1 3.11398 -11.2368 111.714
 530 1 4.36207 -10.8136 111.191
 531 1 5.37244 -10.3489 112.071
 532 1 6.50591 -9.67652 111.548
 533 1 7.3982 -9.0127 112.428
 534 1 8.36796 -8.1203 111.904
 535 1 9.10351 -7.28616 112.784
 536 1 9.86755 -6.21236 112.261
 537 1 10.4145 -5.24403 113.141
 538 1 10.9397 -4.03534 112.618
 539 1 11.2744 -2.97476 113.498
 540 1 11.5381 -1.68353 112.974
 541 1 11.646 -0.576644 113.854
 542 1 11.6367 0.741202 113.331
 543 1 11.5904 1.27482 101.228
 544 1 11.3725 2.57456 100.704
 545 1 11.0755 3.6463 101.584
 546 1 10.5933 4.8728 101.061
 547 1 10.0809 5.85985 101.941
 548 1 9.35526 6.95997 101.418
 549 1 8.64963 7.81958 102.298
 550 1 7.71201 8.74568 101.775
 551 1 6.84373 9.44062 102.654
 552 1 5.73472 10.1526 102.131
 553 1 4.74141 10.6528 103.011
 554 1 3.50904 11.1197 102.488
 555 1 2.43371 11.4035 103.368
 556 1 1.13137 11.6053 102.845
 557 1 0.0206028 11.6603 103.724
 558 1 -1.2953 11.5881 103.201
 559 1 -2.3934 11.412 104.081
 560 1 -3.66587 11.069 103.558
 561 1 -4.70373 10.6694 104.438
 562 1 -5.87765 10.0705 103.915
 563 1 -6.81033 9.46475 104.794
 564 1 -7.83485 8.6358 104.271
 565 1 -8.62194 7.8501 105.151
 566 1 -9.4527 6.82704 104.628
 567 1 -10.0601 5.89544 105.508
 568 1 -10.6611 4.72258 104.985
 569 1 -11.0625 3.68542 105.865
 570 1 -11.4077 2.41356 105.341
 571 1 -11.5858 1.31577 106.221
 572 1 -11.6603 1.42797e-15 105.698
 573 1 -11.6072 -1.11087 106.578
 574 1 -11.4077 -2.41356 106.055
 575 1 -11.1259 -3.48939 106.935
 576 1 -10.6611 -4.72258 106.411
 577 1 -10.1627 -5.71677 107.291
 578 1 -9.4527 -6.82704 106.768
 579 1 -8.7593 -7.69654 107.648
 580 1 -7.83485 -8.6358 107.125
 581 1 -6.97649 -9.34294 108.005
 582 1 -5.87765 -10.0705 107.482
 583 1 -4.89151 -10.5847 108.361
 584 1 -3.66587 -11.069 107.838
 585 1 -2.59466 -11.3679 108.718
 586 1 -1.2953 -11.5881 108.195
 587 1 -0.185418 -11.6588 109.075
 588 1 1.13137 -11.6053 108.552
 589 1 2.23185 -11.4447 109.431
 590 1 3.50904 -11.1197 108.908
 591 1 4.55245 -10.7349 109.788
 592 1 5.73472 -10.1526 109.265
 593 1 6.67586 -9.56007 110.145
 594 1 7.71201 -8.74568 109.622
 595 1 8.51012 -7.97119 110.501
 596 1 9.35526 -6.95997 109.978
 597 1 9.97577 -6.03705 110.858
 598 1 10.5933 -4.8728 110.335
 599 1 11.0093 -3.84142 111.215
 600 1 11.3725 -2.57456 110.692
 601 1 11.566 -1.47941 111.572
 602 1 11.6591 -0.164817 111.048
 603 1 11.6544 0.370788 98.9448
 604 1 11.5381 1.68353 98.4217
 605 1 11.3252 2.7751 99.3015
 606 1 10.9397 4.03534 98.7784
 607 1 10.5055 5.0592 99.6582
 608 1 9.86755 6.21236 99.1351
 609 1 9.23082 7.12418 100.015
 610 1 8.36796 8.1203 99.4917
 611 1 7.55628 8.88058 100.372
 612 1 6.50591 9.67652 99.8484
 613 1 5.55445 10.2523 100.728
 614 1 4.36207 10.8136 100.205
 615 1 3.31203 11.18 101.085
 616 1 2.02929 11.4823 100.562
 617 1 0.926151 11.6234 101.442
 618 1 -0.39138 11.6537 100.918
 619 1 -1.49984 11.5634 101.798
 620 1 -2.7951 11.3203 101.275
 621 1 -3.86087 11.0025 102.155
 622 1 -5.07776 10.4966 101.632
 623 1 -6.05466 9.96509 102.512
 624 1 -7.14048 9.21822 101.989
 625 1 -7.98621 8.49602 102.868
 626 1 -8.89391 7.54058 102.345
 627 1 -9.57185 6.65896 103.225
 628 1 -10.2621 5.53632 102.702
 629 1 -10.7429 4.53347 103.582
 630 1 -11.1858 3.29227 103.059
 631 1 -11.4486 2.21163 103.938
 632 1 -11.6251 0.905612 103.415
 633 1 -11.6585 -0.206018 104.295
 634 1 -11.5607 -1.52027 103.772
 635 1 -11.3633 -2.61474 104.652
 636 1 -10.9957 -3.8803 104.129
 637 1 -10.576 -4.9102 105.008
 638 1 -9.95438 -6.07226 104.485
 639 1 -9.3306 -6.99299 105.365
 640 1 -8.4819 -8.00121 104.842
 641 1 -7.68105 -8.77288 105.722
 642 1 -6.64204 -9.5836 105.199
 643 1 -5.69881 -10.1728 106.079
 644 1 -4.51449 -10.7509 105.555
 645 1 -3.46972 -11.1321 106.435
 646 1 -2.19139 -11.4525 105.912
 647 1 -1.09035 -11.6092 106.792
 648 1 0.226617 -11.6581 106.269
 649 1 1.33624 -11.5835 107.149
 650 1 2.63481 -11.3587 106.625
 651 1 3.70496 -11.056 107.505
 652 1 4.92888 -10.5673 106.982
 653 1 5.9132 -10.0497 107.862
 654 1 7.00946 -9.31823 107.339
 655 1 7.86532 -8.60806 108.219
 656 1 8.78644 -7.66554 107.696
 657 1 9.47677 -6.79359 108.575
 658 1 10.1828 -5.68082 108.052
 659 1 10.6777 -4.68487 108.932
 660 1 11.1382 -3.45005 108.409
 661 1 11.4162 -2.37323 109.289
 662 1 11.6111 -1.06984 108.766
 663 1 11.5066 1.88712 97.0187
 664 1 11.2201 3.1735 96.4956
 665 1 10.8667 4.22799 97.3754
 666 1 10.3202 5.42722 96.8523
 667 1 9.75625 6.38573 97.7321
 668 1 8.97335 7.44587 97.2089
 669 1 8.22318 8.26688 98.0888
 670 1 7.2378 9.142 97.5656
 671 1 6.33393 9.78996 98.4455
 672 1 5.18875 10.4422 97.9223
 673 1 4.17033 10.889 98.8021
 674 1 2.91496 11.29 98.279
 675 1 1.8261 11.5164 99.1588
 676 1 0.514903 11.6489 98.6357
 677 1 -0.597221 11.645 99.5155
 678 1 -1.90745 11.5032 98.9924
 679 1 -2.99468 11.2692 99.8722
 680 1 -4.24719 10.8593 99.3491
 681 1 -5.26242 10.4052 100.229
 682 1 -6.40296 9.74495 99.7057
 683 1 -7.30223 9.09062 100.586
 684 1 -8.2814 8.20856 100.062
 685 1 -9.02575 7.38226 100.942
 686 1 -9.80114 6.31662 100.419
 687 1 -10.3583 5.35414 101.299
 688 1 -10.8964 4.15109 100.776
 689 1 -11.2423 3.09412 101.656
 690 1 -11.5196 1.80575 101.132
 691 1 -11.6392 0.700075 102.012
 692 1 -11.6439 -0.617796 101.489
 693 1 -11.5321 -1.72429 102.369
 694 1 -11.2638 -3.01458 101.846
 695 1 -10.9254 -4.07397 102.726
 696 1 -10.3959 -5.2808 102.203
 697 1 -9.84554 -6.24719 103.082
 698 1 -9.07771 -7.31828 102.559
 699 1 -8.33921 -8.14982 103.439
 700 1 -7.3663 -9.03878 102.916
 701 1 -6.47168 -9.69945 103.796
 702 1 -5.33583 -10.3678 103.273
 703 1 -4.32383 -10.829 104.152
 704 1 -3.07425 -11.2477 103.629
 705 1 -1.9887 -11.4894 104.509
 706 1 -0.679508 -11.6405 103.986
 707 1 0.43256 -11.6522 104.866
 708 1 1.74466 -11.529 104.343
 709 1 2.83509 -11.3104 105.223
 710 1 4.09327 -10.9182 104.699
 711 1 5.11482 -10.4786 105.579
 712 1 6.26458 -9.83448 105.056
 713 1 7.17301 -9.19293 105.936
 714 1 8.16455 -8.32479 105.413
 715 1 8.92051 -7.5091 106.293
 716 1 9.71087 -6.45453 105.769
 717 1 10.2816 -5.50002 106.649
 718 1 10.8366 -4.30469 106.126
 719 1 11.1974 -3.25272 107.006
 720 1 11.4929 -1.9684 106.483
 721 1 11.6282 -0.864525 107.363
 722 1 11.6515 0.453148 106.839
 723 1 11.6184 0.987751 94.7359
 724 1 11.4327 2.29249 94.2128
 725 1 11.1623 3.37124 95.0926
 726 1 10.7106 4.60929 94.5695
 727 1 10.2227 5.60871 95.4493
 728 1 9.52454 6.72645 94.9262
 729 1 8.8404 7.60325 95.806
 730 1 7.92597 8.55226 95.2828
 731 1 7.07515 9.26846 96.1627
 732 1 5.98408 10.0076 95.6395
 733 1 5.00345 10.5322 96.5194
 734 1 3.78301 11.0295 95.9962
 735 1 2.71502 11.3398 96.876
 736 1 1.41808 11.5737 96.3529
 737 1 0.309006 11.6562 97.2327
 738 1 -1.00828 11.6166 96.7096
 739 1 -2.1104 11.4677 97.5894
 740 1 -3.39096 11.1563 97.0663
 741 1 -4.43839 10.7825 97.9461
 742 1 -5.62677 10.2128 97.423
 743 1 -6.57414 9.6303 98.3028
 744 1 -7.61886 8.82695 97.7796
 745 1 -8.42514 8.06096 98.6595
 746 1 -9.28094 7.05876 98.1363
 747 1 -9.91121 6.14246 99.0162
 748 1 -10.541 4.98483 98.493
 749 1 -10.968 3.95792 99.3728
 750 1 -11.3446 2.69498 98.8497
 751 1 -11.5497 1.60194 99.7295
 752 1 -11.6567 0.28841 99.2064
 753 1 -11.6312 -0.823427 100.086
 754 1 -11.464 -2.13066 99.5631
 755 1 -11.2088 -3.21313 100.443
 756 1 -10.7747 -4.45744 99.9198
 757 1 -10.301 -5.46365 100.8
 758 1 -9.61867 -6.59115 100.276
 759 1 -8.94699 -7.47753 101.156
 760 1 -8.04606 -8.43937 100.633
 761 1 -7.20545 -9.16752 101.513
 762 1 -6.12494 -9.92205 100.99
 763 1 -5.15182 -10.4604 101.87
 764 1 -3.93853 -10.975 101.347
 765 1 -2.87504 -11.3003 102.226
 766 1 -1.58153 -11.5525 101.703
 767 1 -0.473735 -11.6506 102.583
 768 1 0.843977 -11.6297 102.06
 769 1 1.94809 -11.4964 102.94
 770 1 3.23293 -11.2031 102.417
 771 1 4.28554 -10.8442 103.296
 772 1 5.48185 -10.2913 102.773
 773 1 6.43736 -9.72226 103.653
 774 1 7.49333 -8.93376 103.13
 775 1 8.31036 -8.17924 104.01
 776 1 9.18024 -7.18924 103.487
 777 1 9.8234 -6.28195 104.366
 778 1 10.4695 -5.13333 103.843
 779 1 10.911 -4.11255 104.723
 780 1 11.3053 -2.85507 104.2
 781 1 11.5259 -1.76503 105.08
 782 1 11.6515 -0.453148 104.557
 783 1 11.66 0.0824106 92.4531
 784 1 11.5762 1.39762 91.93
 785 1 11.3904 2.49412 92.8098
 786 1 11.0362 3.76351 92.2867
 787 1 10.6275 4.79781 93.1665
 788 1 10.0182 5.96639 92.6434
 789 1 9.40421 6.89368 93.5232
 790 1 8.56625 7.91084 93
 791 1 7.77362 8.69096 93.8799
 792 1 6.74327 9.51264 93.3567
 793 1 5.80633 10.1118 94.2366
 794 1 4.62821 10.7024 93.7134
 795 1 3.58754 11.0947 94.5932
 796 1 2.31268 11.4286 94.0701
 797 1 1.21337 11.597 94.9499
 798 1 -0.103013 11.6598 94.4268
 799 1 -1.21337 11.597 95.3066
 800 1 -2.51425 11.386 94.7835
 801 1 -3.58754 11.0947 95.6633
 802 1 -4.81658 10.619 95.1402
 803 1 -5.80633 10.1118 96.02
 804 1 -6.91028 9.39202 95.4968
 805 1 -7.77362 8.69096 96.3767
 806 1 -8.70468 7.75826 95.8535
 807 1 -9.40421 6.89368 96.7334
 808 1 -10.122 5.78846 96.2102
 809 1 -10.6275 4.79781 97.09
 810 1 -11.101 3.56793 96.5669
 811 1 -11.3904 2.49412 97.4467
 812 1 -11.5991 1.19287 96.9236
 813 1 -11.66 0.0824106 97.8034
 814 1 -11.5948 -1.23386 97.2803
 815 1 -11.4245 -2.33287 98.1601
 816 1 -11.0883 -3.60714 97.637
 817 1 -10.6942 -4.64711 98.5168
 818 1 -10.1015 -5.82419 97.9937
 819 1 -9.50071 -6.76006 98.8735
 820 1 -8.67721 -7.78897 98.3503
 821 1 -7.89569 -8.58021 99.2302
 822 1 -6.87705 -9.41638 98.707
 823 1 -5.94868 -10.0287 99.5869
 824 1 -4.77902 -10.6359 99.0637
 825 1 -3.74401 -11.0428 99.9435
 826 1 -2.47399 -11.3948 99.4204
 827 1 -1.37717 -11.5787 100.3
 828 1 -0.0618082 -11.6601 99.7771
 829 1 1.04932 -11.613 100.657
 830 1 2.35305 -11.4204 100.134
 831 1 3.43036 -11.1443 101.014
 832 1 4.666 -10.686 100.49
 833 1 5.66282 -10.1929 101.37
 834 1 6.77684 -9.48875 100.847
 835 1 7.65 -8.79997 101.727
 836 1 8.59415 -7.88052 101.204
 837 1 9.30583 -7.02592 102.084
 838 1 10.0392 -5.93095 101.561
 839 1 10.5586 -4.94755 102.44
 840 1 11.0494 -3.72449 101.917
 841 1 11.354 -2.65488 102.797
 842 1 11.5811 -1.35671 102.274
 843 1 11.6577 -0.247215 103.154
 844 1 11.6111 1.06984 102.631
 845 1 11.5497 1.60194 90.527
 846 1 11.2952 2.895 90.0039
 847 1 10.968 3.95792 90.8837
 848 1 10.4513 5.17029 90.3606
 849 1 9.91121 6.14246 91.2404
 850 1 9.15478 7.22164 90.7173
 851 1 8.42514 8.06096 91.5971
 852 1 7.46171 8.96018 91.0739
 853 1 6.57414 9.6303 91.9538
 854 1 5.44544 10.3106 91.4306
 855 1 4.43839 10.7825 92.3105
 856 1 3.19332 11.2145 91.7873
 857 1 2.1104 11.4677 92.6671
 858 1 0.802875 11.6326 92.144
 859 1 -0.309006 11.6562 93.0238
 860 1 -1.62234 11.5469 92.5007
 861 1 -2.71502 11.3398 93.3805
 862 1 -3.97729 10.961 92.8574
 863 1 -5.00345 10.5322 93.7372
 864 1 -6.15997 9.90034 93.2141
 865 1 -7.07515 9.26846 94.0939
 866 1 -8.07583 8.41088 93.5707
 867 1 -8.8404 7.60325 94.4506
 868 1 -9.6419 6.55711 93.9274
 869 1 -10.2227 5.60871 94.8073
 870 1 -10.7903 4.41933 94.2841
 871 1 -11.1623 3.37124 95.1639
 872 1 -11.4714 2.09013 94.6408
 873 1 -11.6184 0.987751 95.5206
 874 1 -11.6556 -0.329601 94.9975
 875 1 -11.5712 -1.43852 95.8773
 876 1 -11.335 -2.73506 95.3542
 877 1 -11.0228 -3.80249 96.234
 878 1 -10.5234 -5.02205 95.7109
 879 1 -9.99705 -6.00176 96.5907
 880 1 -9.25594 -7.09151 96.0676
 881 1 -8.53824 -7.94106 96.9474
 882 1 -7.58762 -8.85382 96.4242
 883 1 -6.70961 -9.53641 97.3041
 884 1 -5.59064 -10.2326 96.7809
 885 1 -4.59036 -10.7187 97.6608
 886 1 -3.35151 -11.1682 97.1376
 887 1 -2.27228 -11.4367 98.0174
 888 1 -0.96722 -11.6201 97.4943
 889 1 0.144216 -11.6594 98.3741
 890 1 1.45897 -11.5686 97.851
 891 1 2.55447 -11.377 98.7308
 892 1 3.82196 -11.0161 98.2077
 893 1 4.85407 -10.6019 99.0875
 894 1 6.01941 -9.98643 98.5644
 895 1 6.94343 -9.36754 99.4442
 896 1 7.95614 -8.52419 98.921
 897 1 8.73204 -7.72745 99.8009
 898 1 9.54825 -6.69275 99.2777
 899 1 10.1424 -5.75265 100.158
 900 1 10.7268 -4.57141 99.6344
 901 1 11.1135 -3.52868 100.514
 902 1 11.4407 -2.25207 99.9911
 903 1 11.6032 -1.15188 100.871
 904 1 11.6591 0.164817 100.348
 905 1 11.6392 0.700075 88.2442
 906 1 11.4859 2.009 87.7211
 907 1 11.2423 3.09412 88.6009
 908 1 10.8213 4.34296 88.0778
 909 1 10.3583 5.35414 88.9576
 910 1 9.688 6.4888 88.4345
 911 1 9.02575 7.38226 89.3143
 912 1 8.13508 8.35359 88.7911
 913 1 7.30223 9.09062 89.671
 914 1 6.22979 9.85656 89.1478
 915 1 5.26242 10.4052 90.0277
 916 1 4.05466 10.9326 89.5045
 917 1 2.99468 11.2692 90.3843
 918 1 1.70391 11.5351 89.8612
 919 1 0.597221 11.645 90.741
 920 1 -0.72064 11.638 90.2179
 921 1 -1.8261 11.5164 91.0977
 922 1 -3.11398 11.2368 90.5746
 923 1 -4.17033 10.889 91.4544
 924 1 -5.37244 10.3489 90.9313
 925 1 -6.33393 9.78996 91.8111
 926 1 -7.3982 9.0127 91.288
 927 1 -8.22318 8.26688 92.1678
 928 1 -9.10351 7.28616 91.6446
 929 1 -9.75625 6.38573 92.5245
 930 1 -10.4145 5.24403 92.0013
 931 1 -10.8667 4.22799 92.8811
 932 1 -11.2744 2.97476 92.358
 933 1 -11.5066 1.88712 93.2378
 934 1 -11.646 0.576644 92.7147
 935 1 -11.648 -0.535485 93.5945
 936 1 -11.5132 -1.84645 93.0714
 937 1 -11.2849 -2.9349 93.9512
 938 1 -10.8816 -4.18957 93.4281
 939 1 -10.433 -5.20719 94.3079
 940 1 -9.77876 -6.35122 93.7848
 941 1 -9.1292 -7.25394 94.6646
 942 1 -8.25234 -8.23777 94.1414
 943 1 -7.43 -8.9865 95.0213
 944 1 -6.36848 -9.76752 94.4981
 945 1 -5.40897 -10.3298 95.378