ITEM: TIMESTEP
0
ITEM: NUMBER OF ATOMS
5628
ITEM: BOX BOUNDS pp pp pp
-50 50
-50 50
-0.0654907 276.314
ITEM: ATOMS id type xu yu zu
 1 1 8.21385 2.07849 90.8496
 2 1 7.7525 3.4185 90.8168
 3 1 7.42582 4.07979 92.0281
 4 1 6.64192 5.26046 91.9954
 5 1 8.22759 2.02342 88.3942
 6 1 7.77523 3.3665 88.3614
 7 1 7.45298 4.02995 89.5727
 8 1 6.677 5.21585 89.54
 9 1 6.19808 5.77679 90.7513
 10 1 5.1485 6.72907 90.7186
 11 1 4.54376 7.15134 91.9299
 12 1 3.2882 7.80866 91.8972
 13 1 8.24096 1.96826 85.9388
 14 1 7.7976 3.31434 85.906
 15 1 7.47981 3.97994 87.1174
 16 1 6.71179 5.171 87.0846
 17 1 6.23664 5.73514 88.2959
 18 1 5.19346 6.69444 88.2632
 19 1 4.59156 7.12075 89.4745
 20 1 3.34044 7.78646 89.4418
 21 1 2.65059 8.04747 90.6531
 22 1 1.27215 8.3767 90.6204
 23 1 0.538805 8.4556 91.8317
 24 1 -0.878117 8.42712 91.799
 25 1 8.25396 1.91302 83.4834
 26 1 7.81963 3.26203 83.4506
 27 1 7.5063 3.92975 84.662
 28 1 6.74628 5.12593 84.6292
 29 1 6.27491 5.69323 85.8406
 30 1 5.23818 6.6595 85.8078
 31 1 4.63915 7.08983 87.0191
 32 1 3.39252 7.76391 86.9864
 33 1 2.70443 8.02954 88.1977
 34 1 1.32823 8.36799 88.165
 35 1 0.595432 8.4518 89.3763
 36 1 -0.821649 8.43281 89.3436
 37 1 -1.55194 8.3294 90.5549
 38 1 -2.91858 7.9542 90.5222
 39 1 -3.5993 7.67023 91.7335
 40 1 -4.82743 6.963 91.7008
 41 1 8.26659 1.85769 81.028
 42 1 7.8413 3.20958 80.9952
 43 1 7.53245 3.87938 82.2066
 44 1 6.78046 5.08063 82.1738
 45 1 6.31291 5.65107 83.3852
 46 1 5.28267 6.62426 83.3524
 47 1 4.68654 7.0586 84.5637
 48 1 3.44445 7.74101 84.531
 49 1 2.75816 8.01124 85.7423
 50 1 1.38426 8.3589 85.7096
 51 1 0.652033 8.44762 86.9209
 52 1 -0.765144 8.43813 86.8882
 53 1 -1.49611 8.33961 88.0995
 54 1 -2.86523 7.97357 88.0668
 55 1 -3.54784 7.69417 89.2781
 56 1 -4.78068 6.99518 89.2454
 57 1 -5.37094 6.5529 90.4567
 58 1 -6.38805 5.566 90.424
 59 1 -6.84792 4.98934 91.6353
 60 1 -7.58375 3.77812 91.6025
 61 1 8.27884 1.80227 78.5726
 62 1 7.86263 3.15698 78.5398
 63 1 7.55827 3.82884 79.7512
 64 1 6.81434 5.03509 79.7184
 65 1 6.35062 5.60866 80.9298
 66 1 5.32693 6.58873 80.897
 67 1 4.73372 7.02705 82.1084
 68 1 3.49622 7.71776 82.0756
 69 1 2.81176 7.99259 83.2869
 70 1 1.44022 8.34945 83.2542
 71 1 0.708604 8.44306 84.4655
 72 1 -0.708604 8.44306 84.4328
 73 1 -1.44022 8.34945 85.6441
 74 1 -2.81176 7.99259 85.6114
 75 1 -3.49622 7.71776 86.8227
 76 1 -4.73372 7.02705 86.79
 77 1 -5.32693 6.58873 88.0013
 78 1 -6.35062 5.60866 87.9686
 79 1 -6.81434 5.03509 89.1799
 80 1 -7.55827 3.82884 89.1471
 81 1 -7.86263 3.15698 90.3585
 82 1 -8.27884 1.80227 90.3257
 83 1 -8.40422 1.07543 91.5371
 84 1 -8.46591 -0.340436 91.5043
 85 1 8.29073 1.74678 76.1172
 86 1 7.8836 3.10425 76.0845
 87 1 7.58375 3.77812 77.2958
 88 1 6.84792 4.98934 77.263
 89 1 6.38805 5.566 78.4744
 90 1 5.37094 6.5529 78.4416
 91 1 4.78068 6.99518 79.653
 92 1 3.54784 7.69417 79.6202
 93 1 2.86523 7.97357 80.8316
 94 1 1.49611 8.33961 80.7988
 95 1 0.765144 8.43813 82.0101
 96 1 -0.652033 8.44762 81.9774
 97 1 -1.38426 8.3589 83.1887
 98 1 -2.75816 8.01124 83.156
 99 1 -3.44445 7.74101 84.3673
 100 1 -4.68654 7.0586 84.3346
 101 1 -5.28267 6.62426 85.5459
 102 1 -6.31291 5.65107 85.5132
 103 1 -6.78046 5.08063 86.7245
 104 1 -7.53245 3.87938 86.6918
 105 1 -7.8413 3.20958 87.9031
 106 1 -8.26659 1.85769 87.8703
 107 1 -8.39683 1.1317 89.0817
 108 1 -8.468 -0.28372 89.0489
 109 1 -8.41123 -1.01911 90.2603
 110 1 -8.1237 -2.40684 90.2275
 111 1 -7.8836 -3.10425 91.4389
 112 1 -7.2559 -4.37486 91.4061
 113 1 8.30225 1.6912 73.6618
 114 1 7.90421 3.05137 73.6291
 115 1 7.60889 3.72724 74.8404
 116 1 6.88119 4.94335 74.8076
 117 1 6.42519 5.52308 76.019
 118 1 5.41471 6.51677 75.9862
 119 1 4.82743 6.963 77.1976
 120 1 3.5993 7.67023 77.1648
 121 1 2.91858 7.9542 78.3762
 122 1 1.55194 8.3294 78.3434
 123 1 0.821649 8.43281 79.5547
 124 1 -0.595432 8.4518 79.522
 125 1 -1.32823 8.36799 80.7333
 126 1 -2.70443 8.02954 80.7006
 127 1 -3.39252 7.76391 81.9119
 128 1 -4.63915 7.08983 81.8792
 129 1 -5.23818 6.6595 83.0905
 130 1 -6.27491 5.69323 83.0578
 131 1 -6.74628 5.12593 84.2691
 132 1 -7.5063 3.92975 84.2364
 133 1 -7.81963 3.26203 85.4477
 134 1 -8.25396 1.91302 85.4149
 135 1 -8.38906 1.18792 86.6263
 136 1 -8.46971 -0.226991 86.5935
 137 1 -8.41787 -0.962745 87.8049
 138 1 -8.13964 -2.35237 87.7721
 139 1 -7.90421 -3.05137 88.9835
 140 1 -7.28504 -4.32616 88.9507
 141 1 -6.88119 -4.94335 90.162
 142 1 -5.96096 -6.02116 90.1293
 143 1 -5.41471 -6.51677 91.3406
 144 1 -4.25275 -7.32814 91.3079
 145 1 8.31339 1.63555 71.2064
 146 1 7.92448 2.99835 71.1737
 147 1 7.63368 3.67619 72.385
 148 1 6.91414 4.89715 72.3523
 149 1 6.46204 5.47992 73.5636
 150 1 5.45824 6.48036 73.5308
 151 1 4.87396 6.93051 74.7422
 152 1 3.6506 7.64595 74.7094
 153 1 2.9718 7.93447 75.9208
 154 1 1.6077 8.31882 75.888
 155 1 0.878117 8.42712 77.0993
 156 1 -0.538805 8.4556 77.0666
 157 1 -1.27215 8.3767 78.2779
 158 1 -2.65059 8.04747 78.2452
 159 1 -3.34044 7.78646 79.4565
 160 1 -4.59156 7.12075 79.4238
 161 1 -5.19346 6.69444 80.6351
 162 1 -6.23664 5.73514 80.6024
 163 1 -6.71179 5.171 81.8137
 164 1 -7.47981 3.97994 81.781
 165 1 -7.7976 3.31434 82.9923
 166 1 -8.24096 1.96826 82.9596
 167 1 -8.38091 1.24409 84.1709
 168 1 -8.47104 -0.170252 84.1381
 169 1 -8.42413 -0.906337 85.3495
 170 1 -8.15522 -2.2978 85.3167
 171 1 -7.92448 -2.99835 86.5281
 172 1 -7.31385 -4.27727 86.4953
 173 1 -6.91414 -4.89715 87.7066
 174 1 -6.00116 -5.9811 87.6739
 175 1 -5.45824 -6.48036 88.8852
 176 1 -4.30174 -7.29949 88.8525
 177 1 -3.6506 -7.64595 90.0638
 178 1 -2.3251 -8.14748 90.0311
 179 1 -1.6077 -8.31882 91.2424
 180 1 -0.198623 -8.47042 91.2097
 181 1 8.32416 1.57983 68.751
 182 1 7.94438 2.9452 68.7183
 183 1 7.65814 3.62497 69.9296
 184 1 6.94679 4.85072 69.8969
 185 1 6.4986 5.43651 71.1082
 186 1 5.50153 6.44365 71.0755
 187 1 4.92028 6.8977 72.2868
 188 1 3.70173 7.62133 72.254
 189 1 3.02488 7.91439 73.4654
 190 1 1.66339 8.30786 73.4326
 191 1 0.934546 8.42105 74.644
 192 1 -0.482154 8.45902 74.6112
 193 1 -1.21601 8.38503 75.8225
 194 1 -2.59662 8.06505 75.7898
 195 1 -3.2882 7.80866 77.0011
 196 1 -4.54376 7.15134 76.9684
 197 1 -5.1485 6.72907 78.1797
 198 1 -6.19808 5.77679 78.147
 199 1 -6.677 5.21585 79.3583
 200 1 -7.45298 4.02995 79.3256
 201 1 -7.77523 3.3665 80.5369
 202 1 -8.22759 2.02342 80.5042
 203 1 -8.37239 1.3002 81.7155
 204 1 -8.47199 -0.113506 81.6828
 205 1 -8.43001 -0.849888 82.8941
 206 1 -8.17043 -2.24312 82.8613
 207 1 -7.94438 -2.9452 84.0727
 208 1 -7.34234 -4.22818 84.0399
 209 1 -6.94679 -4.85072 85.2513
 210 1 -6.04109 -5.94076 85.2185
 211 1 -5.50153 -6.44365 86.4298
 212 1 -4.35054 -7.27051 86.3971
 213 1 -3.70173 -7.62133 87.6084
 214 1 -2.37962 -8.13172 87.5757
 215 1 -1.66339 -8.30786 88.787
 216 1 -0.255357 -8.4689 88.7543
 217 1 0.482154 -8.45902 89.9656
 218 1 1.88536 -8.26032 89.9329
 219 1 2.59662 -8.06505 91.1442
 220 1 3.90459 -7.51942 91.1115
 221 1 8.33455 1.52403 66.2956
 222 1 7.96393 2.89192 66.2629
 223 1 7.68225 3.57359 67.4742
 224 1 6.97913 4.80408 67.4415
 225 1 6.53487 5.39286 68.6528
 226 1 5.54457 6.40665 68.6201
 227 1 4.96637 6.86459 69.8314
 228 1 3.7527 7.59636 69.7986
 229 1 3.07782 7.89395 71.01
 230 1 1.719 8.29654 70.9772
 231 1 0.990933 8.4146 72.1886
 232 1 -0.425481 8.46206 72.1558
 233 1 -1.15982 8.39299 73.3672
 234 1 -2.54254 8.08226 73.3344
 235 1 -3.23582 7.83051 74.5457
 236 1 -4.49575 7.18162 74.513
 237 1 -5.10331 6.76341 75.7243
 238 1 -6.15925 5.81817 75.6916
 239 1 -6.64192 5.26046 76.9029
 240 1 -7.42582 4.07979 76.8702
 241 1 -7.7525 3.4185 78.0815
 242 1 -8.21385 2.07849 78.0488
 243 1 -8.36349 1.35625 79.2601
 244 1 -8.47256 -0.0567542 79.2274
 245 1 -8.43552 -0.793401 80.4387
 246 1 -8.18527 -2.18834 80.4059
 247 1 -7.96393 -2.89192 81.6173
 248 1 -7.3705 -4.1789 81.5845
 249 1 -6.97913 -4.80408 82.7959
 250 1 -6.08075 -5.90016 82.7631
 251 1 -5.54457 -6.40665 83.9744
 252 1 -4.39914 -7.2412 83.9417
 253 1 -3.7527 -7.59636 85.153
 254 1 -2.43404 -8.1156 85.1203
 255 1 -1.719 -8.29654 86.3316
 256 1 -0.31208 -8.467 86.2989
 257 1 0.425481 -8.46206 87.5102
 258 1 1.82999 -8.27276 87.4775
 259 1 2.54254 -8.08226 88.6888
 260 1 3.85413 -7.5454 88.6561
 261 1 4.49575 -7.18162 89.8674
 262 1 5.6299 -6.3318 89.8347
 263 1 6.15925 -5.81817 91.046
 264 1 7.04286 -4.71016 91.0132
 265 1 8.34457 1.46817 63.8402
 266 1 7.98313 2.83851 63.8075
 267 1 7.70601 3.52205 65.0188
 268 1 7.01115 4.75723 64.9861
 269 1 6.57085 5.34896 66.1974
 270 1 5.58736 6.36937 66.1647
 271 1 5.01224 6.83117 67.376
 272 1 3.8035 7.57105 67.3433
 273 1 3.13063 7.87316 68.5546
 274 1 1.77453 8.28483 68.5218
 275 1 1.04728 8.40777 69.7332
 276 1 -0.368789 8.46472 69.7004
 277 1 -1.10357 8.40057 70.9118
 278 1 -2.48835 8.09911 70.879
 279 1 -3.1833 7.85201 72.0903
 280 1 -4.44755 7.21157 72.0576
 281 1 -5.05789 6.79744 73.2689
 282 1 -6.12014 5.8593 73.2362
 283 1 -6.60653 5.30483 74.4475
 284 1 -7.39832 4.12944 74.4148
 285 1 -7.72943 3.47036 75.6261
 286 1 -8.19974 2.13346 75.5934
 287 1 -8.35422 1.41224 76.8047
 288 1 -8.47275 1.03761e-15 76.772
 289 1 -8.44064 -0.736878 77.9833
 290 1 -8.19974 -2.13346 77.9506
 291 1 -7.98313 -2.83851 79.1619
 292 1 -7.39832 -4.12944 79.1291
 293 1 -7.01115 -4.75723 80.3405
 294 1 -6.12014 -5.8593 80.3077
 295 1 -5.58736 -6.36937 81.5191
 296 1 -4.44755 -7.21157 81.4863
 297 1 -3.8035 -7.57105 82.6976
 298 1 -2.48835 -8.09911 82.6649
 299 1 -1.77453 -8.28483 83.8762
 300 1 -0.368789 -8.46472 83.8435
 301 1 0.368789 -8.46472 85.0548
 302 1 1.77453 -8.28483 85.0221
 303 1 2.48835 -8.09911 86.2334
 304 1 3.8035 -7.57105 86.2007
 305 1 4.44755 -7.21157 87.412
 306 1 5.58736 -6.36937 87.3793
 307 1 6.12014 -5.8593 88.5906
 308 1 7.01115 -4.75723 88.5579
 309 1 7.39832 -4.12944 89.7692
 310 1 7.98313 -2.83851 89.7364
 311 1 8.19974 -2.13346 90.9478
 312 1 8.44064 -0.736878 90.915
 313 1 8.35422 1.41224 61.3848
 314 1 8.00196 2.78497 61.3521
 315 1 7.72943 3.47036 62.5634
 316 1 7.04286 4.71016 62.5307
 317 1 6.60653 5.30483 63.742
 318 1 5.6299 6.3318 63.7093
 319 1 5.05789 6.79744 64.9206
 320 1 3.85413 7.5454 64.8879
 321 1 3.1833 7.85201 66.0992
 322 1 1.82999 8.27276 66.0665
 323 1 1.10357 8.40057 67.2778
 324 1 -0.31208 8.467 67.245
 325 1 -1.04728 8.40777 68.4564
 326 1 -2.43404 8.1156 68.4236
 327 1 -3.13063 7.87316 69.635
 328 1 -4.39914 7.2412 69.6022
 329 1 -5.01224 6.83117 70.8135
 330 1 -6.08075 5.90016 70.7808
 331 1 -6.57085 5.34896 71.9921
 332 1 -7.3705 4.1789 71.9594
 333 1 -7.70601 3.52205 73.1707
 334 1 -8.18527 2.18834 73.138
 335 1 -8.34457 1.46817 74.3493
 336 1 -8.47256 0.0567542 74.3166
 337 1 -8.44539 -0.680322 75.5279
 338 1 -8.21385 -2.07849 75.4952
 339 1 -8.00196 -2.78497 76.7065
 340 1 -7.42582 -4.07979 76.6738
 341 1 -7.04286 -4.71016 77.8851
 342 1 -6.15925 -5.81817 77.8523
 343 1 -5.6299 -6.3318 79.0637
 344 1 -4.49575 -7.18162 79.0309
 345 1 -3.85413 -7.5454 80.2423
 346 1 -2.54254 -8.08226 80.2095
 347 1 -1.82999 -8.27276 81.4208
 348 1 -0.425481 -8.46206 81.3881
 349 1 0.31208 -8.467 82.5994
 350 1 1.719 -8.29654 82.5667
 351 1 2.43404 -8.1156 83.778
 352 1 3.7527 -7.59636 83.7453
 353 1 4.39914 -7.2412 84.9566
 354 1 5.54457 -6.40665 84.9239
 355 1 6.08075 -5.90016 86.1352
 356 1 6.97913 -4.80408 86.1025
 357 1 7.3705 -4.1789 87.3138
 358 1 7.96393 -2.89192 87.2811
 359 1 8.18527 -2.18834 88.4924
 360 1 8.43552 -0.793401 88.4596
 361 1 8.47256 -0.0567542 89.671
 362 1 8.36349 1.35625 89.6382
 363 1 8.36349 1.35625 58.9294
 364 1 8.02044 2.73131 58.8967
 365 1 7.7525 3.4185 60.108
 366 1 7.07425 4.66287 60.0753
 367 1 6.64192 5.26046 61.2866
 368 1 5.67219 6.29395 61.2539
 369 1 5.10331 6.76341 62.4652
 370 1 3.90459 7.51942 62.4325
 371 1 3.23582 7.83051 63.6438
 372 1 1.88536 8.26032 63.6111
 373 1 1.15982 8.39299 64.8224
 374 1 -0.255357 8.4689 64.7896
 375 1 -0.990933 8.4146 66.001
 376 1 -2.37962 8.13172 65.9682
 377 1 -3.07782 7.89395 67.1796
 378 1 -4.35054 7.27051 67.1468
 379 1 -4.96637 6.86459 68.3582
 380 1 -6.04109 5.94076 68.3254
 381 1 -6.53487 5.39286 69.5367
 382 1 -7.34234 4.22818 69.504
 383 1 -7.68225 3.57359 70.7153
 384 1 -8.17043 2.24312 70.6826
 385 1 -8.33455 1.52403 71.8939
 386 1 -8.47199 0.113506 71.8612
 387 1 -8.44976 -0.623736 73.0725
 388 1 -8.22759 -2.02342 73.0398
 389 1 -8.02044 -2.73131 74.2511
 390 1 -7.45298 -4.02995 74.2184
 391 1 -7.07425 -4.66287 75.4297
 392 1 -6.19808 -5.77679 75.3969
 393 1 -5.67219 -6.29395 76.6083
 394 1 -4.54376 -7.15134 76.5755
 395 1 -3.90459 -7.51942 77.7869
 396 1 -2.59662 -8.06505 77.7541
 397 1 -1.88536 -8.26032 78.9655
 398 1 -0.482154 -8.45902 78.9327
 399 1 0.255357 -8.4689 80.144
 400 1 1.66339 -8.30786 80.1113
 401 1 2.37962 -8.13172 81.3226
 402 1 3.70173 -7.62133 81.2899
 403 1 4.35054 -7.27051 82.5012
 404 1 5.50153 -6.44365 82.4685
 405 1 6.04109 -5.94076 83.6798
 406 1 6.94679 -4.85072 83.6471
 407 1 7.34234 -4.22818 84.8584
 408 1 7.94438 -2.9452 84.8257
 409 1 8.17043 -2.24312 86.037
 410 1 8.43001 -0.849888 86.0042
 411 1 8.47199 -0.113506 87.2156
 412 1 8.37239 1.3002 87.1828
 413 1 8.37239 1.3002 56.474
 414 1 8.03855 2.67753 56.4413
 415 1 7.77523 3.3665 57.6526
 416 1 7.10533 4.61538 57.6199
 417 1 6.677 5.21585 58.8312
 418 1 5.71422 6.25581 58.7985
 419 1 5.1485 6.72907 60.0098
 420 1 3.95487 7.4931 59.9771
 421 1 3.2882 7.80866 61.1884
 422 1 1.94065 8.2475 61.1557
 423 1 1.21601 8.38503 62.367
 424 1 -0.198623 8.47042 62.3343
 425 1 -0.934546 8.42105 63.5456
 426 1 -2.3251 8.14748 63.5128
 427 1 -3.02488 7.91439 64.7242
 428 1 -4.30174 7.29949 64.6914
 429 1 -4.92028 6.8977 65.9028
 430 1 -6.00116 5.9811 65.87
 431 1 -6.4986 5.43651 67.0813
 432 1 -7.31385 4.27727 67.0486
 433 1 -7.65814 3.62497 68.2599
 434 1 -8.15522 2.2978 68.2272
 435 1 -8.32416 1.57983 69.4385
 436 1 -8.47104 0.170252 69.4058
 437 1 -8.45375 -0.567122 70.6171
 438 1 -8.24096 -1.96826 70.5844
 439 1 -8.03855 -2.67753 71.7957
 440 1 -7.47981 -3.97994 71.763
 441 1 -7.10533 -4.61538 72.9743
 442 1 -6.23664 -5.73514 72.9416
 443 1 -5.71422 -6.25581 74.1529
 444 1 -4.59156 -7.12075 74.1201
 445 1 -3.95487 -7.4931 75.3315
 446 1 -2.65059 -8.04747 75.2987
 447 1 -1.94065 -8.2475 76.5101
 448 1 -0.538805 -8.4556 76.4773
 449 1 0.198623 -8.47042 77.6886
 450 1 1.6077 -8.31882 77.6559
 451 1 2.3251 -8.14748 78.8672
 452 1 3.6506 -7.64595 78.8345
 453 1 4.30174 -7.29949 80.0458
 454 1 5.45824 -6.48036 80.0131
 455 1 6.00116 -5.9811 81.2244
 456 1 6.91414 -4.89715 81.1917
 457 1 7.31385 -4.27727 82.403
 458 1 7.92448 -2.99835 82.3703
 459 1 8.15522 -2.2978 83.5816
 460 1 8.42413 -0.906337 83.5489
 461 1 8.47104 -0.170252 84.7602
 462 1 8.38091 1.24409 84.7274
 463 1 8.38091 1.24409 54.0187
 464 1 8.05631 2.62362 53.9859
 465 1 7.7976 3.31434 55.1972
 466 1 7.13609 4.56768 55.1645
 467 1 6.71179 5.171 56.3758
 468 1 5.75599 6.21739 56.3431
 469 1 5.19346 6.69444 57.5544
 470 1 4.00497 7.46644 57.5217
 471 1 3.34044 7.78646 58.733
 472 1 1.99585 8.23432 58.7003
 473 1 1.27215 8.3767 59.9116
 474 1 -0.14188 8.47156 59.8789
 475 1 -0.878117 8.42712 61.0902
 476 1 -2.27047 8.16287 61.0574
 477 1 -2.9718 7.93447 62.2688
 478 1 -4.25275 7.32814 62.236
 479 1 -4.87396 6.93051 63.4474
 480 1 -5.96096 6.02116 63.4146
 481 1 -6.46204 5.47992 64.626
 482 1 -7.28504 4.32616 64.5932
 483 1 -7.63368 3.67619 65.8045
 484 1 -8.13964 2.35237 65.7718
 485 1 -8.31339 1.63555 66.9831
 486 1 -8.46971 0.226991 66.9504
 487 1 -8.45736 -0.510482 68.1617
 488 1 -8.25396 -1.91302 68.129
 489 1 -8.05631 -2.62362 69.3403
 490 1 -7.5063 -3.92975 69.3076
 491 1 -7.13609 -4.56768 70.5189
 492 1 -6.27491 -5.69323 70.4862
 493 1 -5.75599 -6.21739 71.6975
 494 1 -4.63915 -7.08983 71.6647
 495 1 -4.00497 -7.46644 72.8761
 496 1 -2.70443 -8.02954 72.8433
 497 1 -1.99585 -8.23432 74.0547
 498 1 -0.595432 -8.4518 74.0219
 499 1 0.14188 -8.47156 75.2333
 500 1 1.55194 -8.3294 75.2005
 501 1 2.27047 -8.16287 76.4118
 502 1 3.5993 -7.67023 76.3791
 503 1 4.25275 -7.32814 77.5904
 504 1 5.41471 -6.51677 77.5577
 505 1 5.96096 -6.02116 78.769
 506 1 6.88119 -4.94335 78.7363
 507 1 7.28504 -4.32616 79.9476
 508 1 7.90421 -3.05137 79.9149
 509 1 8.13964 -2.35237 81.1262
 510 1 8.41787 -0.962745 81.0935
 511 1 8.46971 -0.226991 82.3048
 512 1 8.38906 1.18792 82.272
 513 1 8.38906 1.18792 51.5633
 514 1 8.0737 2.5696 51.5305
 515 1 7.81963 3.26203 52.7418
 516 1 7.16652 4.51978 52.7091
 517 1 6.74628 5.12593 53.9204
 518 1 5.79751 6.1787 53.8877
 519 1 5.23818 6.6595 55.099
 520 1 4.05489 7.43944 55.0663
 521 1 3.39252 7.76391 56.2776
 522 1 2.05097 8.22077 56.2449
 523 1 1.32823 8.36799 57.4562
 524 1 -0.0851305 8.47232 57.4235
 525 1 -0.821649 8.43281 58.6348
 526 1 -2.21574 8.17789 58.6021
 527 1 -2.91858 7.9542 59.8134
 528 1 -4.20356 7.35646 59.7806
 529 1 -4.82743 6.963 60.992
 530 1 -5.9205 6.06095 60.9592
 531 1 -6.42519 5.52308 62.1706
 532 1 -7.2559 4.37486 62.1378
 533 1 -7.60889 3.72724 63.3491
 534 1 -8.1237 2.40684 63.3164
 535 1 -8.30225 1.6912 64.5277
 536 1 -8.468 0.28372 64.495
 537 1 -8.46059 -0.45382 65.7063
 538 1 -8.26659 -1.85769 65.6736
 539 1 -8.0737 -2.5696 66.8849
 540 1 -7.53245 -3.87938 66.8522
 541 1 -7.16652 -4.51978 68.0635
 542 1 -6.31291 -5.65107 68.0308
 543 1 -5.79751 -6.1787 69.2421
 544 1 -4.68654 -7.0586 69.2094
 545 1 -4.05489 -7.43944 70.4207
 546 1 -2.75816 -8.01124 70.3879
 547 1 -2.05097 -8.22077 71.5993
 548 1 -0.652033 -8.44762 71.5665
 549 1 0.0851305 -8.47232 72.7779
 550 1 1.49611 -8.33961 72.7451
 551 1 2.21574 -8.17789 73.9565
 552 1 3.54784 -7.69417 73.9237
 553 1 4.20356 -7.35646 75.135
 554 1 5.37094 -6.5529 75.1023
 555 1 5.9205 -6.06095 76.3136
 556 1 6.84792 -4.98934 76.2809
 557 1 7.2559 -4.37486 77.4922
 558 1 7.8836 -3.10425 77.4595
 559 1 8.1237 -2.40684 78.6708
 560 1 8.41123 -1.01911 78.6381
 561 1 8.468 -0.28372 79.8494
 562 1 8.39683 1.1317 79.8167
 563 1 8.39683 1.1317 49.1079
 564 1 8.09073 2.51546 49.0751
 565 1 7.8413 3.20958 50.2865
 566 1 7.19664 4.47168 50.2537
 567 1 6.78046 5.08063 51.465
 568 1 5.83877 6.13973 51.4323
 569 1 5.28267 6.62426 52.6436
 570 1 4.10464 7.41211 52.6109
 571 1 3.44445 7.74101 53.8222
 572 1 2.10599 8.20684 53.7895
 573 1 1.38426 8.3589 55.0008
 574 1 -0.0283773 8.4727 54.9681
 575 1 -0.765144 8.43813 56.1794
 576 1 -2.16091 8.19255 56.1467
 577 1 -2.86523 7.97357 57.358
 578 1 -4.15419 7.38445 57.3252
 579 1 -4.78068 6.99518 58.5366
 580 1 -5.87977 6.10048 58.5038
 581 1 -6.38805 5.566 59.7152
 582 1 -7.22643 4.42337 59.6824
 583 1 -7.58375 3.77812 60.8938
 584 1 -8.1074 2.46121 60.861
 585 1 -8.29073 1.74678 62.0723
 586 1 -8.46591 0.340436 62.0396
 587 1 -8.46344 -0.397137 63.2509
 588 1 -8.27884 -1.80227 63.2182
 589 1 -8.09073 -2.51546 64.4295
 590 1 -7.55827 -3.82884 64.3968
 591 1 -7.19664 -4.47168 65.6081
 592 1 -6.35062 -5.60866 65.5754
 593 1 -5.83877 -6.13973 66.7867
 594 1 -4.73372 -7.02705 66.754
 595 1 -4.10464 -7.41211 67.9653
 596 1 -2.81176 -7.99259 67.9325
 597 1 -2.10599 -8.20684 69.1439
 598 1 -0.708604 -8.44306 69.1111
 599 1 0.0283773 -8.4727 70.3225
 600 1 1.44022 -8.34945 70.2897
 601 1 2.16091 -8.19255 71.5011
 602 1 3.49622 -7.71776 71.4683
 603 1 4.15419 -7.38445 72.6796
 604 1 5.32693 -6.58873 72.6469
 605 1 5.87977 -6.10048 73.8582
 606 1 6.81434 -5.03509 73.8255
 607 1 7.22643 -4.42337 75.0368
 608 1 7.86263 -3.15698 75.0041
 609 1 8.1074 -2.46121 76.2154
 610 1 8.40422 -1.07543 76.1827
 611 1 8.46591 -0.340436 77.394
 612 1 8.40422 1.07543 77.3613
 613 1 8.40422 1.07543 46.6525
 614 1 8.1074 2.46121 46.6197
 615 1 7.86263 3.15698 47.8311
 616 1 7.22643 4.42337 47.7983
 617 1 6.81434 5.03509 49.0097
 618 1 5.87977 6.10048 48.9769
 619 1 5.32693 6.58873 50.1882
 620 1 4.15419 7.38445 50.1555
 621 1 3.49622 7.71776 51.3668
 622 1 2.16091 8.19255 51.3341
 623 1 1.44022 8.34945 52.5454
 624 1 0.0283773 8.4727 52.5127
 625 1 -0.708604 8.44306 53.724
 626 1 -2.10599 8.20684 53.6913
 627 1 -2.81176 7.99259 54.9026
 628 1 -4.10464 7.41211 54.8699
 629 1 -4.73372 7.02705 56.0812
 630 1 -5.83877 6.13973 56.0484
 631 1 -6.35062 5.60866 57.2598
 632 1 -7.19664 4.47168 57.227
 633 1 -7.55827 3.82884 58.4384
 634 1 -8.09073 2.51546 58.4056
 635 1 -8.27884 1.80227 59.617
 636 1 -8.46344 0.397137 59.5842
 637 1 -8.46591 -0.340436 60.7955
 638 1 -8.29073 -1.74678 60.7628
 639 1 -8.1074 -2.46121 61.9741
 640 1 -7.58375 -3.77812 61.9414
 641 1 -7.22643 -4.42337 63.1527
 642 1 -6.38805 -5.566 63.12
 643 1 -5.87977 -6.10048 64.3313
 644 1 -4.78068 -6.99518 64.2986
 645 1 -4.15419 -7.38445 65.5099
 646 1 -2.86523 -7.97357 65.4772
 647 1 -2.16091 -8.19255 66.6885
 648 1 -0.765144 -8.43813 66.6557
 649 1 -0.0283773 -8.4727 67.8671
 650 1 1.38426 -8.3589 67.8343
 651 1 2.10599 -8.20684 69.0457
 652 1 3.44445 -7.74101 69.0129
 653 1 4.10464 -7.41211 70.2243
 654 1 5.28267 -6.62426 70.1915
 655 1 5.83877 -6.13973 71.4028
 656 1 6.78046 -5.08063 71.3701
 657 1 7.19664 -4.47168 72.5814
 658 1 7.8413 -3.20958 72.5487
 659 1 8.09073 -2.51546 73.76
 660 1 8.39683 -1.1317 73.7273
 661 1 8.46344 -0.397137 74.9386
 662 1 8.41123 1.01911 74.9059
 663 1 8.41123 1.01911 44.1971
 664 1 8.1237 2.40684 44.1643
 665 1 7.8836 3.10425 45.3757
 666 1 7.2559 4.37486 45.3429
 667 1 6.84792 4.98934 46.5543
 668 1 5.9205 6.06095 46.5215
 669 1 5.37094 6.5529 47.7328
 670 1 4.20356 7.35646 47.7001
 671 1 3.54784 7.69417 48.9114
 672 1 2.21574 8.17789 48.8787
 673 1 1.49611 8.33961 50.09
 674 1 0.0851305 8.47232 50.0573
 675 1 -0.652033 8.44762 51.2686
 676 1 -2.05097 8.22077 51.2359
 677 1 -2.75816 8.01124 52.4472
 678 1 -4.05489 7.43944 52.4145
 679 1 -4.68654 7.0586 53.6258
 680 1 -5.79751 6.1787 53.5931
 681 1 -6.31291 5.65107 54.8044
 682 1 -7.16652 4.51978 54.7716
 683 1 -7.53245 3.87938 55.983
 684 1 -8.0737 2.5696 55.9502
 685 1 -8.26659 1.85769 57.1616
 686 1 -8.46059 0.45382 57.1288
 687 1 -8.468 -0.28372 58.3401
 688 1 -8.30225 -1.6912 58.3074
 689 1 -8.1237 -2.40684 59.5187
 690 1 -7.60889 -3.72724 59.486
 691 1 -7.2559 -4.37486 60.6973
 692 1 -6.42519 -5.52308 60.6646
 693 1 -5.9205 -6.06095 61.8759
 694 1 -4.82743 -6.963 61.8432
 695 1 -4.20356 -7.35646 63.0545
 696 1 -2.91858 -7.9542 63.0218
 697 1 -2.21574 -8.17789 64.2331
 698 1 -0.821649 -8.43281 64.2004
 699 1 -0.0851305 -8.47232 65.4117
 700 1 1.32823 -8.36799 65.3789
 701 1 2.05097 -8.22077 66.5903
 702 1 3.39252 -7.76391 66.5575
 703 1 4.05489 -7.43944 67.7689
 704 1 5.23818 -6.6595 67.7361
 705 1 5.79751 -6.1787 68.9474
 706 1 6.74628 -5.12593 68.9147
 707 1 7.16652 -4.51978 70.126
 708 1 7.81963 -3.26203 70.0933
 709 1 8.0737 -2.5696 71.3046
 710 1 8.38906 -1.18792 71.2719
 711 1 8.46059 -0.45382 72.4832
 712 1 8.41787 0.962745 72.4505
 713 1 8.41787 0.962745 41.7417
 714 1 8.13964 2.35237 41.709
 715 1 7.90421 3.05137 42.9203
 716 1 7.28504 4.32616 42.8875
 717 1 6.88119 4.94335 44.0989
 718 1 5.96096 6.02116 44.0661
 719 1 5.41471 6.51677 45.2775
 720 1 4.25275 7.32814 45.2447
 721 1 3.5993 7.67023 46.456
 722 1 2.27047 8.16287 46.4233
 723 1 1.55194 8.3294 47.6346
 724 1 0.14188 8.47156 47.6019
 725 1 -0.595432 8.4518 48.8132
 726 1 -1.99585 8.23432 48.7805
 727 1 -2.70443 8.02954 49.9918
 728 1 -4.00497 7.46644 49.9591
 729 1 -4.63915 7.08983 51.1704
 730 1 -5.75599 6.21739 51.1377
 731 1 -6.27491 5.69323 52.349
 732 1 -7.13609 4.56768 52.3162
 733 1 -7.5063 3.92975 53.5276
 734 1 -8.05631 2.62362 53.4948
 735 1 -8.25396 1.91302 54.7062
 736 1 -8.45736 0.510482 54.6734
 737 1 -8.46971 -0.226991 55.8848
 738 1 -8.31339 -1.63555 55.852
 739 1 -8.13964 -2.35237 57.0633
 740 1 -7.63368 -3.67619 57.0306
 741 1 -7.28504 -4.32616 58.2419
 742 1 -6.46204 -5.47992 58.2092
 743 1 -5.96096 -6.02116 59.4205
 744 1 -4.87396 -6.93051 59.3878
 745 1 -4.25275 -7.32814 60.5991
 746 1 -2.9718 -7.93447 60.5664
 747 1 -2.27047 -8.16287 61.7777
 748 1 -0.878117 -8.42712 61.745
 749 1 -0.14188 -8.47156 62.9563
 750 1 1.27215 -8.3767 62.9235
 751 1 1.99585 -8.23432 64.1349
 752 1 3.34044 -7.78646 64.1021
 753 1 4.00497 -7.46644 65.3135
 754 1 5.19346 -6.69444 65.2807
 755 1 5.75599 -6.21739 66.4921
 756 1 6.71179 -5.171 66.4593
 757 1 7.13609 -4.56768 67.6706
 758 1 7.7976 -3.31434 67.6379
 759 1 8.05631 -2.62362 68.8492
 760 1 8.38091 -1.24409 68.8165
 761 1 8.45736 -0.510482 70.0278
 762 1 8.42413 0.906337 69.9951
 763 1 8.42413 0.906337 39.2863
 764 1 8.15522 2.2978 39.2536
 765 1 7.92448 2.99835 40.4649
 766 1 7.31385 4.27727 40.4321
 767 1 6.91414 4.89715 41.6435
 768 1 6.00116 5.9811 41.6107
 769 1 5.45824 6.48036 42.8221
 770 1 4.30174 7.29949 42.7893
 771 1 3.6506 7.64595 44.0006
 772 1 2.3251 8.14748 43.9679
 773 1 1.6077 8.31882 45.1792
 774 1 0.198623 8.47042 45.1465
 775 1 -0.538805 8.4556 46.3578
 776 1 -1.94065 8.2475 46.3251
 777 1 -2.65059 8.04747 47.5364
 778 1 -3.95487 7.4931 47.5037
 779 1 -4.59156 7.12075 48.715
 780 1 -5.71422 6.25581 48.6823
 781 1 -6.23664 5.73514 49.8936
 782 1 -7.10533 4.61538 49.8609
 783 1 -7.47981 3.97994 51.0722
 784 1 -8.03855 2.67753 51.0394
 785 1 -8.24096 1.96826 52.2508
 786 1 -8.45375 0.567122 52.218
 787 1 -8.47104 -0.170252 53.4294
 788 1 -8.32416 -1.57983 53.3966
 789 1 -8.15522 -2.2978 54.6079
 790 1 -7.65814 -3.62497 54.5752
 791 1 -7.31385 -4.27727 55.7865
 792 1 -6.4986 -5.43651 55.7538
 793 1 -6.00116 -5.9811 56.9651
 794 1 -4.92028 -6.8977 56.9324
 795 1 -4.30174 -7.29949 58.1437
 796 1 -3.02488 -7.91439 58.111
 797 1 -2.3251 -8.14748 59.3223
 798 1 -0.934546 -8.42105 59.2896
 799 1 -0.198623 -8.47042 60.5009
 800 1 1.21601 -8.38503 60.4682
 801 1 1.94065 -8.2475 61.6795
 802 1 3.2882 -7.80866 61.6467
 803 1 3.95487 -7.4931 62.8581
 804 1 5.1485 -6.72907 62.8253
 805 1 5.71422 -6.25581 64.0367
 806 1 6.677 -5.21585 64.0039
 807 1 7.10533 -4.61538 65.2152
 808 1 7.77523 -3.3665 65.1825
 809 1 8.03855 -2.67753 66.3938
 810 1 8.37239 -1.3002 66.3611
 811 1 8.45375 -0.567122 67.5724
 812 1 8.43001 0.849888 67.5397
 813 1 8.43001 0.849888 36.8309
 814 1 8.17043 2.24312 36.7982
 815 1 7.94438 2.9452 38.0095
 816 1 7.34234 4.22818 37.9767
 817 1 6.94679 4.85072 39.1881
 818 1 6.04109 5.94076 39.1553
 819 1 5.50153 6.44365 40.3667
 820 1 4.35054 7.27051 40.3339
 821 1 3.70173 7.62133 41.5453
 822 1 2.37962 8.13172 41.5125
 823 1 1.66339 8.30786 42.7238
 824 1 0.255357 8.4689 42.6911
 825 1 -0.482154 8.45902 43.9024
 826 1 -1.88536 8.26032 43.8697
 827 1 -2.59662 8.06505 45.081
 828 1 -3.90459 7.51942 45.0483
 829 1 -4.54376 7.15134 46.2596
 830 1 -5.67219 6.29395 46.2269
 831 1 -6.19808 5.77679 47.4382
 832 1 -7.07425 4.66287 47.4055
 833 1 -7.45298 4.02995 48.6168
 834 1 -8.02044 2.73131 48.584
 835 1 -8.22759 2.02342 49.7954
 836 1 -8.44976 0.623736 49.7626
 837 1 -8.47199 -0.113506 50.974
 838 1 -8.33455 -1.52403 50.9412
 839 1 -8.17043 -2.24312 52.1526
 840 1 -7.68225 -3.57359 52.1198
 841 1 -7.34234 -4.22818 53.3311
 842 1 -6.53487 -5.39286 53.2984
 843 1 -6.04109 -5.94076 54.5097
 844 1 -4.96637 -6.86459 54.477
 845 1 -4.35054 -7.27051 55.6883
 846 1 -3.07782 -7.89395 55.6556
 847 1 -2.37962 -8.13172 56.8669
 848 1 -0.990933 -8.4146 56.8342
 849 1 -0.255357 -8.4689 58.0455
 850 1 1.15982 -8.39299 58.0128
 851 1 1.88536 -8.26032 59.2241
 852 1 3.23582 -7.83051 59.1913
 853 1 3.90459 -7.51942 60.4027
 854 1 5.10331 -6.76341 60.3699
 855 1 5.67219 -6.29395 61.5813
 856 1 6.64192 -5.26046 61.5485
 857 1 7.07425 -4.66287 62.7599
 858 1 7.7525 -3.4185 62.7271
 859 1 8.02044 -2.73131 63.9384
 860 1 8.36349 -1.35625 63.9057
 861 1 8.44976 -0.623736 65.117
 862 1 8.43552 0.793401 65.0843
 863 1 8.43552 0.793401 34.3755
 864 1 8.18527 2.18834 34.3428
 865 1 7.96393 2.89192 35.5541
 866 1 7.3705 4.1789 35.5214
 867 1 6.97913 4.80408 36.7327
 868 1 6.08075 5.90016 36.6999
 869 1 5.54457 6.40665 37.9113
 870 1 4.39914 7.2412 37.8785
 871 1 3.7527 7.59636 39.0899
 872 1 2.43404 8.1156 39.0571
 873 1 1.719 8.29654 40.2685
 874 1 0.31208 8.467 40.2357
 875 1 -0.425481 8.46206 41.447
 876 1 -1.82999 8.27276 41.4143
 877 1 -2.54254 8.08226 42.6256
 878 1 -3.85413 7.5454 42.5929
 879 1 -4.49575 7.18162 43.8042
 880 1 -5.6299 6.3318 43.7715
 881 1 -6.15925 5.81817 44.9828
 882 1 -7.04286 4.71016 44.9501
 883 1 -7.42582 4.07979 46.1614
 884 1 -8.00196 2.78497 46.1287
 885 1 -8.21385 2.07849 47.34
 886 1 -8.44539 0.680322 47.3072
 887 1 -8.47256 -0.0567542 48.5186
 888 1 -8.34457 -1.46817 48.4858
 889 1 -8.18527 -2.18834 49.6972
 890 1 -7.70601 -3.52205 49.6644
 891 1 -7.3705 -4.1789 50.8758
 892 1 -6.57085 -5.34896 50.843
 893 1 -6.08075 -5.90016 52.0543
 894 1 -5.01224 -6.83117 52.0216
 895 1 -4.39914 -7.2412 53.2329
 896 1 -3.13063 -7.87316 53.2002
 897 1 -2.43404 -8.1156 54.4115
 898 1 -1.04728 -8.40777 54.3788
 899 1 -0.31208 -8.467 55.5901
 900 1 1.10357 -8.40057 55.5574
 901 1 1.82999 -8.27276 56.7687
 902 1 3.1833 -7.85201 56.736
 903 1 3.85413 -7.5454 57.9473
 904 1 5.05789 -6.79744 57.9145
 905 1 5.6299 -6.3318 59.1259
 906 1 6.60653 -5.30483 59.0931
 907 1 7.04286 -4.71016 60.3045
 908 1 7.72943 -3.47036 60.2717
 909 1 8.00196 -2.78497 61.4831
 910 1 8.35422 -1.41224 61.4503
 911 1 8.44539 -0.680322 62.6616
 912 1 8.44064 0.736878 62.6289
 913 1 8.44064 0.736878 31.9201
 914 1 8.19974 2.13346 31.8874
 915 1 7.98313 2.83851 33.0987
 916 1 7.39832 4.12944 33.066
 917 1 7.01115 4.75723 34.2773
 918 1 6.12014 5.8593 34.2446
 919 1 5.58736 6.36937 35.4559
 920 1 4.44755 7.21157 35.4231
 921 1 3.8035 7.57105 36.6345
 922 1 2.48835 8.09911 36.6017
 923 1 1.77453 8.28483 37.8131
 924 1 0.368789 8.46472 37.7803
 925 1 -0.368789 8.46472 38.9916
 926 1 -1.77453 8.28483 38.9589
 927 1 -2.48835 8.09911 40.1702
 928 1 -3.8035 7.57105 40.1375
 929 1 -4.44755 7.21157 41.3488
 930 1 -5.58736 6.36937 41.3161
 931 1 -6.12014 5.8593 42.5274
 932 1 -7.01115 4.75723 42.4947
 933 1 -7.39832 4.12944 43.706
 934 1 -7.98313 2.83851 43.6733
 935 1 -8.19974 2.13346 44.8846
 936 1 -8.44064 0.736878 44.8519
 937 1 -8.47275 1.03761e-15 46.0632
 938 1 -8.35422 -1.41224 46.0304
 939 1 -8.19974 -2.13346 47.2418
 940 1 -7.72943 -3.47036 47.209
 941 1 -7.39832 -4.12944 48.4204
 942 1 -6.60653 -5.30483 48.3876
 943 1 -6.12014 -5.8593 49.5989
 944 1 -5.05789 -6.79744 49.5662
 945 1 -4.44755 -7.21157 50.7775
 946 1 -3.1833 -7.85201 50.7448